LAMMPS (12 Dec 2018)
OMP_NUM_THREADS environment is not set. Defaulting to 1 thread. (../comm.cpp:87)
  using 1 OpenMP thread(s) per MPI task
# Lammps script to read in mBuild topologies and perform energy minimization
# Initialization
units           real
boundary        p p p
atom_style      full

# Assume ff info is included in data file
pair_style     lj/cut/coul/cut ${rcut} # read in from job.sp.r_cut
pair_style     lj/cut/coul/cut 14.0 
bond_style  none
angle_style none
dihedral_style  none
read_restart equilibrated_npt.restart
  restoring atom style full from restart
  triclinic box = (-0.215625 -0.215625 -0.215625) to (40.1956 40.1956 40.1956) with tilt (0 0 0)
  3 by 4 by 3 MPI processor grid
  restoring pair style lj/cut/coul/cut from restart
  restoring bond style harmonic from restart
  restoring angle style harmonic from restart
  restoring dihedral style opls from restart
  900 atoms
  0 = max # of 1-2 neighbors
  0 = max # of 1-3 neighbors
  0 = max # of 1-4 neighbors
  1 = max # of special neighbors

pair_modify shift no  #TODO: Look to make sure this shift is okay

neighbor        2.5 bin #skin cutoff

timestep 2.0
thermo 2000
thermo_style custom step temp press pe epair emol ke etotal density

variable tsample equal ${T} #kelvin, modified by job.sp.temperature
variable tsample equal 140.0 
variable psample equal ${P}/101.325 #kPa to atm modified by job.sp.pressure
variable psample equal 1318.0/101.325 
# ________________________________________________________________________________________

# Production
variable startstep equal step
variable t equal temp
variable pressure equal press
variable e equal etotal
variable p equal pe
variable k equal ke
variable d equal density
variable filename string "prlog.txt"
fix output_data all print 1000 "${startstep} ${t} ${pressure} $e $p $k $d" file ${filename} title "step temp press etotal pe ke density"
fix output_data all print 1000 "${startstep} ${t} ${pressure} $e $p $k $d" file prlog.txt title "step temp press etotal pe ke density"
dump traj1 all dcd 10000 prod.dcd
fix integrator all npt temp ${tsample} ${tsample} 100.0 iso ${psample} ${psample} 1000.0 pchain 10
fix integrator all npt temp 140 ${tsample} 100.0 iso ${psample} ${psample} 1000.0 pchain 10
fix integrator all npt temp 140 140 100.0 iso ${psample} ${psample} 1000.0 pchain 10
fix integrator all npt temp 140 140 100.0 iso 13.007648655317 ${psample} 1000.0 pchain 10
fix integrator all npt temp 140 140 100.0 iso 13.007648655317 13.007648655317 1000.0 pchain 10
fix zeromom all momentum 100 linear 1 1 1 rescale
run 3000000
Neighbor list info ...
  update every 1 steps, delay 10 steps, check yes
  max neighbors/atom: 2000, page size: 100000
  master list distance cutoff = 16.5
  ghost atom cutoff = 16.5
  binsize = 8.25, bins = 5 5 5
  1 neighbor lists, perpetual/occasional/extra = 1 0 0
  (1) pair lj/cut/coul/cut, perpetual
      attributes: half, newton on
      pair build: half/bin/newton/tri
      stencil: half/bin/3d/newton/tri
      bin: standard
Per MPI rank memory allocation (min/avg/max) = 5.744 | 5.772 | 5.994 Mbytes
Step Temp Press PotEng E_pair E_mol KinEng TotEng Density 
  200000    139.18057    84.469283    -1286.723    -1286.723            0    372.96887   -913.75414   0.36330409 
201000 139.714358072766 1.29688511011026 -915.445529360538 -1289.84483380321 374.399304442668 0.363153312547011
202000 141.200218554954 33.3967500198591 -892.328260199805 -1270.709296647 378.381036447191 0.360483044935421
  202000    141.20022     33.39675   -1270.7093   -1270.7093            0    378.38104   -892.32826   0.36048304 
203000 140.808177640848 -10.1428233397064 -935.277065096704 -1312.60753059629 377.330465499589 0.368407642360936
204000 143.146135354836 -16.4741355361566 -886.900913825189 -1270.49651738222 383.595603557035 0.355986885367888
  204000    143.14614   -16.474136   -1270.4965   -1270.4965            0     383.5956   -886.90091   0.35598689 
205000 141.755761211725 -27.4132819344048 -869.115245531173 -1248.98499643229 379.869750901115 0.352416727621232
206000 137.299325759126 76.4352783929274 -910.848855998802 -1278.77648186164 367.927625862843 0.363214094809846
  206000    137.29933    76.435278   -1278.7765   -1278.7765            0    367.92763   -910.84886   0.36321409 
207000 135.848028511301 40.146872799469 -924.847975574738 -1288.88649019933 364.038514624596 0.365151158312538
208000 141.135182215392 3.08390548981455 -889.708689396831 -1267.91544482788 378.206755431045 0.357904291679841
  208000    141.13518    3.0839055   -1267.9154   -1267.9154            0    378.20676   -889.70869   0.35790429 
209000 141.532063962958 -75.4582181715306 -898.252556556042 -1277.52285514961 379.270298593568 0.35732583010557
210000 143.829212415748 8.24719005873635 -913.547597921493 -1298.97367602684 385.426078105349 0.366044550800636
  210000    143.82921    8.2471901   -1298.9737   -1298.9737            0    385.42608    -913.5476   0.36604455 
211000 145.66177467491 -42.4822413797292 -906.130054900457 -1296.46693848523 390.336883584774 0.361548659772654
212000 138.918139693893 -32.9448424229219 -949.372461475164 -1321.63810112241 372.265639647248 0.369683145882158
  212000    138.91814   -32.944842   -1321.6381   -1321.6381            0    372.26564   -949.37246   0.36968315 
213000 142.032024893537 -17.4278752843202 -930.729745403655 -1311.33981341848 380.61006801483 0.367026306933208
214000 137.202921064074 31.681715348746 -925.600496988217 -1293.26978253965 367.669285551435 0.365671535901294
  214000    137.20292    31.681715   -1293.2698   -1293.2698            0    367.66929    -925.6005   0.36567154 
215000 133.568762268352 -17.0294959447939 -951.037942009414 -1308.96859694249 357.930654933072 0.369509349595117
216000 144.335288114405 95.4900101021443 -906.91278369621 -1293.69501726179 386.782233565576 0.366788046769279
  216000    144.33529     95.49001    -1293.695    -1293.695            0    386.78223   -906.91278   0.36678805 
217000 139.758690119316 -37.7080981706499 -918.590816794591 -1293.10891996075 374.518103166161 0.362003975937414
218000 141.842832195654 37.6445720035938 -895.092799188489 -1275.1958784051 380.103079216613 0.359891794349047
  218000    141.84283    37.644572   -1275.1959   -1275.1959            0    380.10308    -895.0928   0.35989179 
219000 141.083220782555 121.17435084286 -930.638718633485 -1308.7062305066 378.067511873113 0.372603396764203
220000 139.147049089267 -7.88654499730731 -915.13792057677 -1288.01697977223 372.879059195464 0.361458474010511
  220000    139.14705    -7.886545    -1288.017    -1288.017            0    372.87906   -915.13792   0.36145847 
221000 138.632655590414 98.7059349402873 -919.522221603843 -1291.02283572869 371.500614124842 0.367730053347821
222000 137.785950876894 43.708054617649 -899.646340784669 -1268.87799944793 369.231658663264 0.36113273577107
  222000    137.78595    43.708055    -1268.878    -1268.878            0    369.23166   -899.64634   0.36113274 
223000 139.676967879074 10.5760190432255 -941.096606593766 -1315.39571473088 374.299108137117 0.369978401719028
224000 137.869985340127 -62.2444362381695 -914.160582988558 -1283.61743285634 369.456849867787 0.357507298412494
  224000    137.86999   -62.244436   -1283.6174   -1283.6174            0    369.45685   -914.16058    0.3575073 
225000 140.766572522403 -20.490570918988 -896.979561907051 -1274.19853616392 377.21897425687 0.360231779694124
226000 137.426649183881 -4.90396902869661 -938.911312866575 -1307.18013345217 368.268820585599 0.367885778599557
  226000    137.42665    -4.903969   -1307.1801   -1307.1801            0    368.26882   -938.91131   0.36788578 
227000 137.524635400841 79.0536613484363 -907.2136099528 -1275.74500893035 368.531398977546 0.362015543322108
228000 141.073988322243 48.6531446915001 -904.261054795086 -1282.30382599897 378.042771203887 0.362778508350818
  228000    141.07399    48.653145   -1282.3038   -1282.3038            0    378.04277   -904.26105   0.36277851 
229000 140.8859243982 36.4130650198262 -932.664562539424 -1310.2033697748 377.538807235376 0.36959610881425
230000 136.282415034681 43.5040877632438 -909.023378069605 -1274.22593921352 365.20256114391 0.361133328270568
  230000    136.28242    43.504088   -1274.2259   -1274.2259            0    365.20256   -909.02338   0.36113333 
231000 136.251852018603 35.2310281851631 -922.064746400676 -1287.1854063562 365.120659955519 0.363714096277374
232000 138.540775294608 18.9046221165544 -921.833842962145 -1293.08824102648 371.254398064331 0.364496046053937
  232000    138.54078    18.904622   -1293.0882   -1293.0882            0     371.2544   -921.83384   0.36449605 
233000 137.846818674899 54.9296968675855 -922.040931356911 -1291.43570039444 369.394769037532 0.365420333239134
234000 138.88378137507 55.9948089301328 -927.012074745731 -1299.18564274876 372.173568003026 0.368299983061117
  234000    138.88378    55.994809   -1299.1856   -1299.1856            0    372.17357   -927.01207   0.36829998 
235000 139.383215793584 -20.1277365567641 -882.737115815878 -1256.24904232039 373.511926504512 0.356517352778822
236000 134.735117806603 -48.6574307305219 -947.445028259882 -1308.50122238791 361.056194128023 0.365527248452565
  236000    134.73512   -48.657431   -1308.5012   -1308.5012            0    361.05619   -947.44503   0.36552725 
237000 142.477810473137 72.8986759758949 -902.940496045895 -1284.74515718082 381.804661134928 0.363817828093047
238000 137.332185892652 -69.9150114804684 -915.025823910653 -1283.04150665831 368.015682747661 0.358718208356091
  238000    137.33219   -69.915011   -1283.0415   -1283.0415            0    368.01568   -915.02582   0.35871821 
239000 146.60594975252 15.8724902416998 -881.496415094182 -1274.36345017667 392.867035082485 0.358245982666343
240000 137.232779322961 6.40653750678992 -929.861602693673 -1297.61090086166 367.749298167987 0.364706461172968
  240000    137.23278    6.4065375   -1297.6109   -1297.6109            0     367.7493    -929.8616   0.36470646 
241000 149.019820869262 111.25843756315 -891.954546593422 -1291.29014854039 399.335601946971 0.365673084203965
242000 139.266608210241 74.9075866354823 -914.592827914701 -1287.79227545357 373.199447538867 0.364278317491938
  242000    139.26661    74.907587   -1287.7923   -1287.7923            0    373.19945   -914.59283   0.36427832 
243000 137.454061998419 66.8185552807058 -917.546417773822 -1285.88869780079 368.342280026972 0.363431162934434
244000 143.222342170446 -37.8798730570477 -869.953467001901 -1253.75328563856 383.799818636657 0.352650812889352
  244000    143.22234   -37.879873   -1253.7533   -1253.7533            0    383.79982   -869.95347   0.35265081 
245000 139.558572957282 56.1794709600058 -890.426513473453 -1264.40835302787 373.981839554417 0.359787483221736
246000 139.520002030088 88.6377066603531 -930.641585278304 -1304.52006445865 373.878479180347 0.370092150314845
  246000       139.52    88.637707   -1304.5201   -1304.5201            0    373.87848   -930.64159   0.37009215 
247000 136.868090971571 -147.166469649283 -929.915480875607 -1296.68750607765 366.772025202044 0.360606216196666
248000 127.937707875378 64.8127747315929 -957.411756978462 -1300.25260384106 342.840846862594 0.368542796643341
  248000    127.93771    64.812775   -1300.2526   -1300.2526            0    342.84085   -957.41176    0.3685428 
249000 135.657257739576 -25.1460672068152 -942.676147353925 -1306.20344433971 363.527296985786 0.366639793279426
250000 138.153231443941 -19.1059051008572 -914.522464422027 -1284.73834253657 370.21587811454 0.362315570579189
  250000    138.15323   -19.105905   -1284.7383   -1284.7383            0    370.21588   -914.52246   0.36231557 
251000 145.164413772172 123.741009838532 -885.122745202578 -1274.12682678611 389.004081583529 0.363461313293587
252000 139.725827804979 -24.1816081192394 -889.037200626237 -1263.46724106356 374.43004043732 0.355435013146569
  252000    139.72583   -24.181608   -1263.4672   -1263.4672            0    374.43004    -889.0372   0.35543501 
253000 142.941526527774 -28.5463178610205 -905.262682825634 -1288.30998623949 383.047303413861 0.361779081500508
254000 138.036624295958 38.5489663364907 -887.290670364911 -1257.19407068046 369.90340031555 0.357536292194424
  254000    138.03662    38.548966   -1257.1941   -1257.1941            0     369.9034   -887.29067   0.35753629 
255000 144.790591984212 32.3996249856316 -898.44910913332 -1286.45144244038 388.002333307057 0.363145913765091
256000 138.999336077037 7.24917089044619 -866.763448983131 -1239.24667449479 372.483225511661 0.352251406065688
  256000    138.99934    7.2491709   -1239.2467   -1239.2467            0    372.48323   -866.76345   0.35225141 
257000 132.280887839396 10.895686246705 -920.091603116474 -1274.57107882171 354.47947570524 0.360739310170319
258000 137.431577247693 99.3106013074087 -922.829188949746 -1291.11121550565 368.282026555901 0.366468180676098
  258000    137.43158    99.310601   -1291.1112   -1291.1112            0    368.28203   -922.82919   0.36646818 
259000 140.947728593353 -0.602000762201334 -891.912271246803 -1269.61669816505 377.70442691825 0.359590743975843
260000 141.982890732158 -1.46885873016897 -880.772729550739 -1261.25113038334 380.4784008326 0.356263924468822
  260000    141.98289   -1.4688587   -1261.2511   -1261.2511            0     380.4784   -880.77273   0.35626392 
261000 139.37686276614 -67.4590544386047 -922.066726809904 -1295.56162880034 373.494901990431 0.363263417878853
262000 137.95662974972 42.4588978276534 -891.517640508866 -1261.20667558033 369.689035071463 0.355923617623871
  262000    137.95663    42.458898   -1261.2067   -1261.2067            0    369.68904   -891.51764   0.35592362 
263000 140.587588215459 -21.1131765766085 -932.316704919208 -1309.05604629546 376.739341376254 0.367212438760619
264000 135.942467796418 24.9261936800802 -919.113802427717 -1283.40539055992 364.291588132198 0.363058915234995
  264000    135.94247    24.926194   -1283.4054   -1283.4054            0    364.29159    -919.1138   0.36305892 
265000 137.689744757313 43.6156371997481 -927.55597599494 -1296.52982647907 368.973850484126 0.366484814983029
266000 138.444738765789 90.6089796384155 -945.545644491968 -1316.5426888377 370.997044345737 0.372432249359923
  266000    138.44474     90.60898   -1316.5427   -1316.5427            0    370.99704   -945.54564   0.37243225 
267000 134.873839002136 42.1451879012494 -913.384676612325 -1274.81260861923 361.427932006904 0.361055137519822
268000 145.807597117395 -16.4678549590642 -927.570198839016 -1318.29784985666 390.727651017639 0.368585019778625
  268000     145.8076   -16.467855   -1318.2978   -1318.2978            0    390.72765    -927.5702   0.36858502 
269000 141.694628701174 51.452511072422 -894.38583920649 -1274.09177037036 379.705931163866 0.360918670350986
270000 150.691454830238 26.7562389603612 -886.757136101183 -1290.57229620456 403.815160103379 0.363111756006783
  270000    150.69145    26.756239   -1290.5723   -1290.5723            0    403.81516   -886.75714   0.36311176 
271000 138.085640026029 24.4529148500451 -894.236842531608 -1264.2715926633 370.034750131692 0.358600660667151
272000 138.004195332894 -55.2036255077989 -925.432880721752 -1295.24937958077 369.816498859018 0.36212035824735
  272000     138.0042   -55.203626   -1295.2494   -1295.2494            0     369.8165   -925.43288   0.36212036 
273000 142.993405491743 31.7140732078505 -895.708825154413 -1278.8951511304 383.186325975988 0.360620100140481
274000 142.527144178246 -33.3501622217321 -907.789667300257 -1289.72653034438 381.936863044119 0.36118716275191
  274000    142.52714   -33.350162   -1289.7265   -1289.7265            0    381.93686   -907.78967   0.36118716 
275000 137.899421113623 83.8037336490913 -927.936990551298 -1297.47272088116 369.535730329858 0.367682742362073
276000 140.646579381255 -22.1312122668235 -912.738386081724 -1289.6358089304 376.897422848673 0.360164203689466
  276000    140.64658   -22.131212   -1289.6358   -1289.6358            0    376.89742   -912.73839    0.3601642 
277000 145.688637026583 -58.0853500523488 -900.573188750133 -1290.98205667439 390.408867924258 0.361811676609709
278000 143.083497251391 -60.5829389582739 -905.327298758749 -1288.75504796864 383.427749209888 0.361586341223104
  278000     143.0835   -60.582939    -1288.755    -1288.755            0    383.42775    -905.3273   0.36158634 
279000 144.16455906823 -14.58594062094 -920.519562774774 -1306.84428548021 386.324722705436 0.366079779722912
280000 135.116378316928 -3.20425849712211 -928.200765564248 -1290.27864187187 362.077876307624 0.362812260101759
  280000    135.11638   -3.2042585   -1290.2786   -1290.2786            0    362.07788   -928.20077   0.36281226 
281000 139.443270957615 -23.637174084893 -932.223073273751 -1305.89593249807 373.672859224324 0.365392076312635
282000 138.349821179547 -1.23940823267512 -911.256247769263 -1281.9989368808 370.74268911154 0.362227128569253
  282000    138.34982   -1.2394082   -1281.9989   -1281.9989            0    370.74269   -911.25625   0.36222713 
283000 130.622362900342 38.576641936758 -892.84777915223 -1242.88282557942 350.03504642719 0.354261191528773
284000 149.691873884492 111.712734244485 -870.769542757668 -1271.90607758599 401.136534828325 0.362657219545331
  284000    149.69187    111.71273   -1271.9061   -1271.9061            0    401.13653   -870.76954   0.36265722 
285000 153.069236444464 73.8729954688877 -883.395239784863 -1293.58225597206 410.187016187198 0.366589415047039
286000 137.594688352839 50.0735155874699 -923.088269896858 -1291.80739314887 368.719123252016 0.36615433988673
  286000    137.59469    50.073516   -1291.8074   -1291.8074            0    368.71912   -923.08827   0.36615434 
287000 137.587504861525 -27.2472175173147 -888.801977216067 -1257.50185051991 368.699873303847 0.354655587688499
288000 145.216476140389 41.7690351431415 -896.359278616041 -1285.50287423891 389.143595622865 0.364181166779025
  288000    145.21648    41.769035   -1285.5029   -1285.5029            0     389.1436   -896.35928   0.36418117 
289000 142.489011105152 29.4569705343319 -900.631743845927 -1282.46641985473 381.834676008803 0.360670389673127
290000 142.398763693723 35.8709379078517 -874.250250740475 -1255.84308640779 381.592835667317 0.355069314822183
  290000    142.39876    35.870938   -1255.8431   -1255.8431            0    381.59284   -874.25025   0.35506931 
291000 142.587645289474 -80.7629479576725 -894.764291327429 -1276.86328211757 382.098990790144 0.356224178187552
292000 135.910674783216 -22.0798082460224 -935.014549266615 -1299.2209401278 364.206390861186 0.3656409344545
  292000    135.91067   -22.079808   -1299.2209   -1299.2209            0    364.20639   -935.01455   0.36564093 
293000 135.02599654024 -2.33851298762012 -912.665137043537 -1274.50081294461 361.835675901073 0.358588552891041
294000 139.634490065482 84.7664144907241 -913.549469824096 -1287.73474811521 374.185278291118 0.365749282146216
  294000    139.63449    84.766414   -1287.7347   -1287.7347            0    374.18528   -913.54947   0.36574928 
295000 144.550366696848 75.0359324161345 -892.838906718187 -1280.19749673544 387.358590017253 0.363713994683208
296000 136.181631762189 -168.553354804191 -900.280960860733 -1265.21344820807 364.932487347337 0.352886979825445
  296000    136.18163   -168.55335   -1265.2134   -1265.2134            0    364.93249   -900.28096   0.35288698 
297000 134.53709911521 -17.7086894507005 -914.717273565492 -1275.24282745477 360.525553889277 0.360166389366667
298000 143.970320096195 79.4329967311914 -918.444890235481 -1304.24910139845 385.804211162965 0.369123427751001
  298000    143.97032    79.432997   -1304.2491   -1304.2491            0    385.80421   -918.44489   0.36912343 
299000 143.856260895187 51.1446458931176 -922.862084503837 -1308.36064572422 385.498561220383 0.368492147701643
300000 146.565290541127 22.8689191150549 -884.726037960643 -1277.48411659316 392.758078632519 0.361389030048377
  300000    146.56529    22.868919   -1277.4841   -1277.4841            0    392.75808   -884.72604   0.36138903 
301000 139.237587740449 53.2513955248238 -916.862891766949 -1289.98457175311 373.121679986164 0.363720352983958
302000 144.825573990797 44.7579735358111 -866.993073058244 -1255.0891493357 388.096076277459 0.355707326536553
  302000    144.82557    44.757974   -1255.0891   -1255.0891            0    388.09608   -866.99307   0.35570733 
303000 133.698111547346 48.8379703499103 -932.767153199986 -1291.04443163514 358.27727843515 0.365383870328794
304000 139.699996941383 -61.5978924991161 -930.477847149356 -1304.83866737555 374.360820226191 0.36438402866384
  304000        139.7   -61.597892   -1304.8387   -1304.8387            0    374.36082   -930.47785   0.36438403 
305000 143.322077193444 -22.9540905257702 -933.875140538815 -1317.94222392731 384.0670833885 0.369014420174123
306000 141.959431339242 -15.7205822840698 -937.614080795664 -1318.0296163615 380.41553556584 0.370129950419628
  306000    141.95943   -15.720582   -1318.0296   -1318.0296            0    380.41554   -937.61408   0.37012995 
307000 134.176270287501 -101.274796287954 -903.063253298494 -1262.6218767736 359.558623475106 0.354697641203044
308000 136.437978231859 93.817329386571 -942.497922254948 -1308.11735360192 365.619431346971 0.370100889429022
  308000    136.43798    93.817329   -1308.1174   -1308.1174            0    365.61943   -942.49792   0.37010089 
309000 136.934187011111 60.6280279117876 -927.592430256856 -1294.54157620419 366.949145947338 0.366027263368214
310000 138.975228797278 59.2219638593856 -927.70831966506 -1300.12694373634 372.418624071278 0.367177247126061
  310000    138.97523    59.221964   -1300.1269   -1300.1269            0    372.41862   -927.70832   0.36717725 
311000 140.052881480535 100.355035475894 -888.091216979839 -1263.39767892696 375.306461947124 0.360569496166414
312000 135.344994358119 6.88216162541555 -922.589157799839 -1285.27966754033 362.690509740487 0.363202772373124
  312000    135.34499    6.8821616   -1285.2797   -1285.2797            0    362.69051   -922.58916   0.36320277 
313000 141.331162048064 88.0277045370062 -873.902014638251 -1252.63394667998 378.731932041733 0.356687798876559
314000 137.895986982327 -6.89137255784908 -922.057884595645 -1291.58441231823 369.52652772258 0.363514802149179
  314000    137.89599   -6.8913726   -1291.5844   -1291.5844            0    369.52653   -922.05788    0.3635148 
315000 140.026095131148 -8.70522754108186 -890.261156450095 -1265.49583772473 375.234681274634 0.357745989690133
316000 143.632958205576 23.8428294125508 -914.673824358261 -1299.5739905903 384.900166232041 0.366380181213079
  316000    143.63296    23.842829    -1299.574    -1299.574            0    384.90017   -914.67382   0.36638018 
317000 147.409546735359 -64.4326846043085 -868.436086172082 -1263.45655885094 395.020472678858 0.355086523276384
318000 136.855235789121 -36.7331087579 -950.135909639717 -1316.87348618928 366.737576549564 0.369245215810637
  318000    136.85524   -36.733109   -1316.8735   -1316.8735            0    366.73758   -950.13591   0.36924522 
319000 133.540388214995 -63.1869349339795 -911.443596855687 -1269.29821646936 357.85461961367 0.355542968520024
320000 137.747339290039 -106.963583940197 -895.538553018158 -1264.6667423497 369.12818933154 0.35347583472248
  320000    137.74734   -106.96358   -1264.6667   -1264.6667            0    369.12819   -895.53855   0.35347583 
321000 144.470550973814 89.2716627893635 -865.427871473926 -1252.57257544826 387.144703974331 0.35781491901387
322000 133.641607132654 51.8552928079844 -919.544329898441 -1277.67019072805 358.12586082961 0.361774935611538
  322000    133.64161    51.855293   -1277.6702   -1277.6702            0    358.12586   -919.54433   0.36177494 
323000 140.421484414647 144.63671484567 -917.599247435119 -1293.89347244433 376.294225009208 0.369251241379627
324000 142.526249495329 -38.1409224708776 -909.448645317793 -1291.38311083694 381.934465519151 0.363421737994962
  324000    142.52625   -38.140922   -1291.3831   -1291.3831            0    381.93447   -909.44865   0.36342174 
325000 135.840324326725 29.057215916183 -931.71642810051 -1295.73429745009 364.017869349577 0.365036505510225
326000 136.028002013971 43.0437723833997 -913.705007606927 -1278.22580590764 364.520798300713 0.36121934939617
  326000      136.028    43.043772   -1278.2258   -1278.2258            0     364.5208   -913.70501   0.36121935 
327000 141.138293503443 85.4800663401542 -929.815809627891 -1308.0309025276 378.215092899705 0.369585103799196
328000 142.009392780972 32.7234912783663 -893.441796028323 -1273.99121567945 380.54941965113 0.360432189117558
  328000    142.00939    32.723491   -1273.9912   -1273.9912            0    380.54942    -893.4418   0.36043219 
329000 142.775717322543 86.1635968123771 -904.537694766527 -1287.14067125533 382.602976488805 0.365910025410489
330000 140.830539909255 92.9407330666239 -922.647519731041 -1300.03791047992 377.39039074888 0.36894868335726
  330000    140.83054    92.940733   -1300.0379   -1300.0379            0    377.39039   -922.64752   0.36894868 
331000 143.84759021316 -3.47107835061649 -933.807383766948 -1319.28270974248 385.475325975527 0.371120210421903
332000 141.903587398995 24.5209340494434 -919.882206971284 -1300.14809483681 380.26588786553 0.366854544917195
  332000    141.90359    24.520934   -1300.1481   -1300.1481            0    380.26589   -919.88221   0.36685454 
333000 148.628815766623 109.128801382826 -883.386278804962 -1281.67408551828 398.287806713318 0.365512105441353
334000 145.591030036583 -62.2359651086358 -880.718399046147 -1270.86570481123 390.147305765085 0.357272921545982
  334000    145.59103   -62.235965   -1270.8657   -1270.8657            0    390.14731    -880.7184   0.35727292 
335000 136.951602602256 -105.30887305545 -930.098822349845 -1297.09463769682 366.99581534697 0.361692460001453
336000 144.081864168833 -0.838755341203307 -905.363481259018 -1291.46660245375 386.103121194735 0.362736605105442
  336000    144.08186  -0.83875534   -1291.4666   -1291.4666            0    386.10312   -905.36348   0.36273661 
337000 133.749147428196 -36.8768492245357 -926.601869685244 -1285.01591143202 358.414041746776 0.361503275935207
338000 139.814023747077 -17.0783181026994 -896.383580367423 -1271.04996372491 374.666383357488 0.358971560624638
  338000    139.81402   -17.078318     -1271.05     -1271.05            0    374.66638   -896.38358   0.35897156 
339000 137.592514480899 38.7867125695844 -887.647336782416 -1256.36063460494 368.713297822522 0.355983129314663
340000 147.487878080225 75.8697202168481 -876.541738706934 -1271.77211966894 395.230380962003 0.360969248287785
  340000    147.48788     75.86972   -1271.7721   -1271.7721            0    395.23038   -876.54174   0.36096925 
341000 137.225816467417 -69.4591811714125 -918.738806171747 -1286.46944563988 367.730639468132 0.359792421286742
342000 140.2078050915 -4.81491557240631 -937.771887362205 -1313.49350558236 375.72161822016 0.369471264022069
  342000    140.20781   -4.8149156   -1313.4935   -1313.4935            0    375.72162   -937.77189   0.36947126 
343000 143.521711259174 24.2462393160792 -892.590435832632 -1277.19248825641 384.602052423776 0.361946846920586
344000 143.819313807354 2.31061379032938 -899.34291099405 -1284.74246332103 385.399552326978 0.362173633565695
  344000    143.81931    2.3106138   -1284.7425   -1284.7425            0    385.39955   -899.34291   0.36217363 
345000 138.202033083053 -27.1381163721296 -924.077455070318 -1294.42410929113 370.346654220813 0.366212156200924
346000 138.356813258765 62.2608677991445 -907.432212000171 -1278.19363812365 370.761426123483 0.363743503204485
  346000    138.35681    62.260868   -1278.1936   -1278.1936            0    370.76143   -907.43221    0.3637435 
347000 136.662523736994 -19.7807885458619 -878.113918384959 -1244.33507515298 366.221156768023 0.34960451208717
348000 138.949125167674 -11.7969487401656 -923.955373027245 -1296.30404594317 372.348672915922 0.365569150824612
  348000    138.94913   -11.796949    -1296.304    -1296.304            0    372.34867   -923.95537   0.36556915 
349000 142.114970004654 132.486147562509 -906.436425939353 -1287.2687659693 380.832340029944 0.365700652636412
350000 136.318993016378 34.7010213267743 -894.449624660116 -1259.75020558591 365.300580925799 0.356261446354484
  350000    136.31899    34.701021   -1259.7502   -1259.7502            0    365.30058   -894.44962   0.35626145 
351000 140.315692848033 26.3344265511491 -913.586151560916 -1289.59688180622 376.010730245303 0.364118177686629
352000 136.491851369541 18.0463508339916 -931.304755153442 -1297.06855294603 365.763797792586 0.366464495871561
  352000    136.49185    18.046351   -1297.0686   -1297.0686            0     365.7638   -931.30476    0.3664645 
353000 142.634841443312 72.9295496232292 -920.728619727747 -1302.95408432784 382.225464600089 0.369442197036593
354000 146.581811304075 -61.6416430775158 -865.92225631405 -1258.72460643192 392.80235011787 0.352349074911206
  354000    146.58181   -61.641643   -1258.7246   -1258.7246            0    392.80235   -865.92226   0.35234907 
355000 143.4729563032 -14.1873966501629 -874.191817482882 -1258.66321889944 384.471401416557 0.354977839936268
356000 141.082844932046 119.336214610282 -905.256556468714 -1283.32306115709 378.066504688376 0.365075074320336
  356000    141.08284    119.33621   -1283.3231   -1283.3231            0     378.0665   -905.25656   0.36507507 
357000 140.6187892269 -47.611707383577 -902.278293888805 -1279.1012461204 376.822952231592 0.359994847631995
358000 139.469707648452 -20.8434807326712 -904.988846776619 -1278.73254967655 373.743702899932 0.359974537953754
  358000    139.46971   -20.843481   -1278.7325   -1278.7325            0     373.7437   -904.98885   0.35997454 
359000 143.062262298855 86.025709590012 -889.964611701708 -1273.33545658502 383.370844883311 0.363052596257351
360000 137.9835811848 9.19447930309903 -922.613891032868 -1292.37514916491 369.761258132047 0.363951975503172
  360000    137.98358    9.1944793   -1292.3751   -1292.3751            0    369.76126   -922.61389   0.36395198 
361000 146.3032626399 67.0809650903582 -850.987508041613 -1243.04341786831 392.055909826698 0.35475250519967
362000 131.909714741037 7.45208366809886 -937.050264513832 -1290.53508976388 353.484825250051 0.364626351489551
  362000    131.90971    7.4520837   -1290.5351   -1290.5351            0    353.48483   -937.05026   0.36462635 
363000 143.920090101552 -32.4010363695062 -885.850307024584 -1271.51991444806 385.669607423478 0.357553592976201
364000 141.361634359997 40.3561737440343 -924.775194753216 -1303.58878491907 378.81359016585 0.369117924211469
  364000    141.36163    40.356174   -1303.5888   -1303.5888            0    378.81359   -924.77519   0.36911792 
365000 136.424668030683 -19.4543956359849 -916.795088823205 -1282.37885218207 365.583763358861 0.361863344882612
366000 140.26981745351 33.4143278847028 -944.140228813131 -1320.02802455093 375.887795737802 0.37091011296407
  366000    140.26982    33.414328    -1320.028    -1320.028            0     375.8878   -944.14023   0.37091011 
367000 137.28494947113 -53.3184499069185 -952.266364250155 -1320.15546528061 367.88910103046 0.369048391914889
368000 139.567216044547 24.1648736594025 -919.457155488209 -1293.46215634047 374.00500085226 0.365236449302733
  368000    139.56722    24.164874   -1293.4622   -1293.4622            0      374.005   -919.45716   0.36523645 
369000 138.575762287673 -36.5442779913232 -912.772510560375 -1284.12066495762 371.348154397244 0.3619459207642
370000 128.956299805109 5.19426169260869 -926.194279106861 -1271.76469589528 345.570416788423 0.359906038922474
  370000     128.9563    5.1942617   -1271.7647   -1271.7647            0    345.57042   -926.19428   0.35990604 
371000 139.800992201853 -38.3195735042566 -890.016043584165 -1264.64750568134 374.631462097174 0.355796804954554
372000 143.587060817598 4.92650419149971 -914.836075523156 -1299.61324831077 384.777172787616 0.364975334859389
  372000    143.58706    4.9265042   -1299.6132   -1299.6132            0    384.77717   -914.83608   0.36497533 
373000 145.826684376461 170.787133042663 -883.079372244156 -1273.85817231059 390.778800066433 0.363870511107238
374000 134.800809358763 19.8197278566132 -969.010693689551 -1330.24292463853 361.232230948975 0.373597320665983
  374000    134.80081    19.819728   -1330.2429   -1330.2429            0    361.23223   -969.01069   0.37359732 
375000 130.746529470001 -25.0447098976928 -952.111777610499 -1302.47955918357 350.367781573072 0.365546608799936
376000 135.889034545393 65.2126975903278 -936.817225478896 -1300.96562595097 364.148400472076 0.367440548236547
  376000    135.88903    65.212698   -1300.9656   -1300.9656            0     364.1484   -936.81723   0.36744055 
377000 136.239181194667 28.5915449794546 -930.459834077148 -1295.54653941459 365.086705337441 0.366100426380024
378000 146.872227941071 -63.015579585121 -853.141712489303 -1246.72230607756 393.580593588258 0.348949111712074
  378000    146.87223    -63.01558   -1246.7223   -1246.7223            0    393.58059   -853.14171   0.34894911 
379000 133.745332363704 -62.6371236516703 -939.431436096227 -1297.83525443066 358.403818334438 0.36495888088204
380000 135.591968680133 1.12914443866429 -915.400139068753 -1278.75247781273 363.352338743981 0.360593479270365
  380000    135.59197    1.1291444   -1278.7525   -1278.7525            0    363.35234   -915.40014   0.36059348 
381000 142.312593802479 9.67598280561224 -911.755641301983 -1293.11756335533 381.36192205335 0.362893118573744
382000 137.992530336718 9.29334069829318 -920.901127861059 -1290.68636746716 369.785239606104 0.364309017812447
  382000    137.99253    9.2933407   -1290.6864   -1290.6864            0    369.78524   -920.90113   0.36430902 
383000 136.037301805498 26.2766166076157 -962.277897061295 -1326.82361646194 364.545719400643 0.371502853156713
384000 137.448151726312 104.503048302544 -914.278945043983 -1282.60538702971 368.326441985723 0.3636490268619
  384000    137.44815    104.50305   -1282.6054   -1282.6054            0    368.32644   -914.27895   0.36364903 
385000 144.423109008262 12.5528268156877 -919.1214872974 -1306.13905874828 387.017571450882 0.368405694152531
386000 140.751652223978 -10.8845968670335 -924.449769887803 -1301.6287615013 377.1789916135 0.365774766332104
  386000    140.75165   -10.884597   -1301.6288   -1301.6288            0    377.17899   -924.44977   0.36577477 
387000 134.104667929064 -37.7480427596213 -943.835497374936 -1303.2022445564 359.366747181464 0.364143828600808
388000 136.310663444601 -25.2550995769617 -933.097644547976 -1298.37590431851 365.278259770534 0.363995511157812
  388000    136.31066     -25.2551   -1298.3759   -1298.3759            0    365.27826   -933.09764   0.36399551 
389000 140.996051064048 21.3588389965464 -925.211598048772 -1303.04551702258 377.833918973803 0.366833220243013
390000 141.51072569848 -21.2021662130169 -912.991344284169 -1292.20446170116 379.213117416994 0.363940152092715
  390000    141.51073   -21.202166   -1292.2045   -1292.2045            0    379.21312   -912.99134   0.36394015 
391000 143.017776420264 -162.14626077296 -893.727982491824 -1276.9796164205 383.251633928675 0.354713400231115
392000 141.494188574776 -14.8883259843137 -916.814904588774 -1295.98370667771 379.168802088937 0.364211095498369
  392000    141.49419   -14.888326   -1295.9837   -1295.9837            0     379.1688    -916.8149    0.3642111 
393000 139.380245890925 -36.4417601242444 -902.660987633949 -1276.16495554705 373.503967913103 0.357918101878848
394000 130.724520945604 -95.8553043755448 -938.049566075226 -1288.35837034389 350.308804268667 0.360404970324127
  394000    130.72452   -95.855304   -1288.3584   -1288.3584            0     350.3088   -938.04957   0.36040497 
395000 140.414095580594 -16.6081473165985 -917.042909649947 -1293.31733444414 376.274424794197 0.363684584998189
396000 138.867286993732 120.943925110219 -950.64785890396 -1322.77722611771 372.129367213749 0.374054919632591
  396000    138.86729    120.94393   -1322.7772   -1322.7772            0    372.12937   -950.64786   0.37405492 
397000 139.222734302495 14.4039848874644 -913.039684781545 -1286.12156129357 373.081876512023 0.363286666694977
398000 148.140846128431 12.9456659585681 -895.709636649183 -1292.68980758585 396.980170936663 0.364326488037744
  398000    148.14085    12.945666   -1292.6898   -1292.6898            0    396.98017   -895.70964   0.36432649 
399000 139.607930487467 105.009145382088 -928.862823915499 -1302.97692922431 374.114105308813 0.370560302479491
400000 140.08050044554 -44.3366036388951 -907.811362087715 -1283.19183590756 375.380473819848 0.36045511953637
  400000     140.0805   -44.336604   -1283.1918   -1283.1918            0    375.38047   -907.81136   0.36045512 
401000 144.633173090576 -99.2044041803251 -903.190215459406 -1290.77070576409 387.580490304689 0.359404981526531
402000 135.095367013907 -0.0278005414397361 -893.551818438778 -1255.57338974422 362.021571305439 0.355365030106426
  402000    135.09537 -0.027800541   -1255.5734   -1255.5734            0    362.02157   -893.55182   0.35536503 
403000 135.735319615804 1.09817237539585 -927.511493745856 -1291.24797690668 363.736483160826 0.364245230813257
404000 140.511731517816 22.6520024012383 -896.72033566008 -1273.25640018472 376.536064524637 0.360202847912772
  404000    140.51173    22.652002   -1273.2564   -1273.2564            0    376.53606   -896.72034   0.36020285 
405000 140.077509390414 -17.2859503038459 -924.856592061727 -1300.22905060688 375.372458545154 0.365472955418026
406000 139.807669325092 -36.8135117841297 -897.007112720765 -1271.65646782715 374.649355106389 0.358628867047429
  406000    139.80767   -36.813512   -1271.6565   -1271.6565            0    374.64936   -897.00711   0.35862887 
407000 135.942175762464 7.86739960552709 -939.335970788171 -1303.6267763429 364.290805554726 0.366984096806459
408000 137.693105575397 -64.4411230256352 -910.313576452109 -1279.29643308256 368.982856630455 0.358556929557393
  408000    137.69311   -64.441123   -1279.2964   -1279.2964            0    368.98286   -910.31358   0.35855693 
409000 144.283448816815 45.0162013064032 -887.239510949781 -1273.88282824914 386.643317299358 0.361457242290511
410000 140.363537198788 6.37092807335594 -918.972163283783 -1295.11110434357 376.138941059792 0.364329150944384
  410000    140.36354    6.3709281   -1295.1111   -1295.1111            0    376.13894   -918.97216   0.36432915 
411000 135.393032226375 -69.6577452423909 -939.680987520367 -1302.50022665352 362.819239133157 0.362437798784523
412000 136.128707242976 -14.8088246330793 -933.070064925726 -1297.86072788612 364.790662960391 0.365797117783115
  412000    136.12871   -14.808825   -1297.8607   -1297.8607            0    364.79066   -933.07006   0.36579712 
413000 137.255223228397 50.6041783580488 -927.60512055234 -1295.4145627363 367.809442183964 0.366823925908908
414000 132.252727928738 55.3463695287144 -953.124485621337 -1307.52849985569 354.404014234357 0.370732800271698
  414000    132.25273     55.34637   -1307.5285   -1307.5285            0    354.40401   -953.12449    0.3707328 
415000 140.86857157956 23.3023773570063 -925.794532103558 -1303.28683815381 377.492306050253 0.366809985768346
416000 141.435253514526 6.71099382362765 -914.146505450437 -1293.15737641569 379.010870965257 0.36565348697444
  416000    141.43525    6.7109938   -1293.1574   -1293.1574            0    379.01087   -914.14651   0.36565349 
417000 140.07179565784 -84.2279890968917 -927.348287877247 -1302.70543505762 375.357147180375 0.363801619509173
418000 138.108087320962 47.0443466452177 -912.978481285567 -1283.07338451624 370.094903230669 0.362140869766936
  418000    138.10809    47.044347   -1283.0734   -1283.0734            0     370.0949   -912.97848   0.36214087 
419000 139.614748152233 -135.654174822926 -879.675228212798 -1253.80760314673 374.132374933935 0.350279935114485
420000 139.316796550184 43.4240728111855 -940.868147187308 -1314.20208684155 373.333939654243 0.369783474934358
  420000     139.3168    43.424073   -1314.2021   -1314.2021            0    373.33394   -940.86815   0.36978347 
421000 139.784811837488 -37.2121435622507 -918.277193174619 -1292.86529596894 374.588102794326 0.361467092267206
422000 143.198021081127 -19.3962257489828 -934.087176283889 -1317.82182052437 383.734644240483 0.369561967468493
  422000    143.19802   -19.396226   -1317.8218   -1317.8218            0    383.73464   -934.08718   0.36956197 
423000 137.940675001036 38.7520647667768 -933.564926931264 -1303.2112072931 369.646280361837 0.367523389664925
424000 142.953788941181 -9.57855392669035 -927.59124969048 -1310.67141328503 383.080163594545 0.369195580292608
  424000    142.95379   -9.5785539   -1310.6714   -1310.6714            0    383.08016   -927.59125   0.36919558 
425000 138.761460240527 38.7381888445518 -933.629752484275 -1305.47553064291 371.845778158638 0.369245802631052
426000 138.537091919723 -128.161695652074 -909.655695753451 -1280.90022330043 371.244527546983 0.356574340223132
  426000    138.53709    -128.1617   -1280.9002   -1280.9002            0    371.24453    -909.6557   0.35657434 
427000 135.366055291083 81.5635122306771 -909.932634671791 -1272.67958241021 362.746947738424 0.362203238083017
428000 142.929116595811 3.28827461917347 -866.457457758262 -1249.47150567885 383.014047920588 0.353216490467454
  428000    142.92912    3.2882746   -1249.4715   -1249.4715            0    383.01405   -866.45746   0.35321649 
429000 141.851469984536 -92.2396766467945 -908.475730371142 -1288.60195668727 380.126226316124 0.358981041722463
430000 139.580133529102 17.927526540348 -914.814660091932 -1288.85427655063 374.039616458697 0.364656341344564
  430000    139.58013    17.927527   -1288.8543   -1288.8543            0    374.03962   -914.81466   0.36465634 
431000 145.88717386661 33.440192846437 -879.51673163032 -1270.45762830121 390.940896670891 0.360058089892433
432000 139.599734087621 -4.60302479269398 -927.285368306174 -1301.37750932697 374.092141020793 0.36591510537732
  432000    139.59973   -4.6030248   -1301.3775   -1301.3775            0    374.09214   -927.28537   0.36591511 
433000 148.526955608642 38.6398560789564 -896.134099144648 -1294.1489462794 398.014847134754 0.365898373514818
434000 136.182119828794 196.401958129606 -915.882220431095 -1280.81601567405 364.93379524296 0.366662616828758
  434000    136.18212    196.40196    -1280.816    -1280.816            0     364.9338   -915.88222   0.36666262 
435000 138.309547510614 10.4136405103458 -920.571965635875 -1291.20673145418 370.634765818301 0.363747149755487
436000 141.98893320843 10.869994220731 -896.815089233111 -1277.30968238084 380.494593147725 0.361158542450796
  436000    141.98893    10.869994   -1277.3097   -1277.3097            0    380.49459   -896.81509   0.36115854 
437000 139.012703931512 60.5926315723218 -912.105497680011 -1284.62454567611 372.519047996096 0.362755402156106
438000 148.171269589783 -67.4597806360581 -858.660372979617 -1255.72207113314 397.061698153522 0.351572879184914
  438000    148.17127   -67.459781   -1255.7221   -1255.7221            0     397.0617   -858.66037   0.35157288 
439000 144.873250032256 62.0191131939864 -895.288650763268 -1283.51248682868 388.223836065408 0.363485470916739
440000 142.710538745795 -6.29703625968612 -908.358371838528 -1290.78668615134 382.428314312808 0.363277568603266
  440000    142.71054   -6.2970363   -1290.7867   -1290.7867            0    382.42831   -908.35837   0.36327757 
441000 135.724808530308 18.3328321614718 -941.755635554987 -1305.46395165301 363.708316098018 0.368530715348313
442000 140.668491613577 25.5582953552051 -906.200420350077 -1283.15656246464 376.956142114563 0.362601240868477
  442000    140.66849    25.558295   -1283.1566   -1283.1566            0    376.95614   -906.20042   0.36260124 
443000 136.702664624523 21.8924347304346 -940.804425576845 -1307.13314981737 366.328724240527 0.3677108701376
444000 146.493119894691 5.46049365135276 -930.623503003391 -1323.18818247351 392.564679470118 0.37157452841096
  444000    146.49312    5.4604937   -1323.1882   -1323.1882            0    392.56468    -930.6235   0.37157453 
445000 143.594261342141 90.6640571539741 -923.93426876339 -1308.73073714394 384.796468380552 0.370504345725795
446000 136.679248853662 75.1759144381702 -923.528258549289 -1289.79423441918 366.265975869893 0.365030332766241
  446000    136.67925    75.175914   -1289.7942   -1289.7942            0    366.26598   -923.52826   0.36503033 
447000 143.620951880935 -68.6970196574946 -899.474668807543 -1284.34266111232 384.867992304773 0.358981399349103
448000 135.687808389606 64.5273314507235 -917.831007780421 -1281.4401728167 363.609165036279 0.363659608721063
  448000    135.68781    64.527331   -1281.4402   -1281.4402            0    363.60917   -917.83101   0.36365961 
449000 142.494053303953 93.0782590491095 -889.581070410881 -1271.42925824302 381.84818783214 0.362509453868512
450000 132.475933883048 59.4451343945435 -943.64774655067 -1298.64989654712 355.002149996452 0.368757355072146
  450000    132.47593    59.445134   -1298.6499   -1298.6499            0    355.00215   -943.64775   0.36875736 
451000 143.414343778086 30.1723826979927 -906.762586143932 -1291.07692074977 384.314334605839 0.363695162301871
452000 141.944072594382 -24.0151322524099 -879.832282144474 -1260.20666014089 380.374377996411 0.355195582755456
  452000    141.94407   -24.015132   -1260.2067   -1260.2067            0    380.37438   -879.83228   0.35519558 
453000 139.099436829586 1.3591705489569 -916.616639177993 -1289.36810950462 372.751470326623 0.363580741699917
454000 142.868257057222 -103.021839898878 -869.673546407502 -1252.52450608698 382.850959679473 0.350849804441128
  454000    142.86826   -103.02184   -1252.5245   -1252.5245            0    382.85096   -869.67355    0.3508498 
455000 130.896336687281 -6.03474612629179 -961.827503879573 -1312.59673107873 350.769227199162 0.369253020906766
456000 139.243093554247 68.6215398987794 -917.426144863625 -1290.5625790446 373.136434180971 0.365392162849448
  456000    139.24309     68.62154   -1290.5626   -1290.5626            0    373.13643   -917.42614   0.36539216 
457000 143.611529499577 53.386142574505 -924.576516889503 -1309.41925958447 384.842742694962 0.369341890503394
458000 137.943195990297 51.994170333039 -948.404876204414 -1318.05791218277 369.653035978361 0.37351612009338
  458000     137.9432     51.99417   -1318.0579   -1318.0579            0    369.65304   -948.40488   0.37351612 
459000 132.158412086475 76.6588069953133 -919.545185619822 -1273.69645714235 354.151271522527 0.363093486524598
460000 138.809491423169 51.8545683061814 -923.36295626838 -1295.33744590392 371.974489635544 0.366172587696101
  460000    138.80949    51.854568   -1295.3374   -1295.3374            0    371.97449   -923.36296   0.36617259 
461000 133.883731672863 20.7110076952222 -919.975730758151 -1278.75042439702 358.774693638873 0.363206564291618
462000 145.855810065611 102.410185726052 -914.001102542369 -1304.85795212289 390.856849580523 0.369657115811461
  462000    145.85581    102.41019    -1304.858    -1304.858            0    390.85685    -914.0011   0.36965712 
463000 144.60676704917 103.688165427952 -908.48537392898 -1295.99510269082 387.509728761838 0.368442814979484
464000 136.75086953951 -11.8922402690755 -952.488163869374 -1318.94606514575 366.457901276379 0.370927142287042
  464000    136.75087    -11.89224   -1318.9461   -1318.9461            0     366.4579   -952.48816   0.37092714 
465000 144.427868365487 -18.7307361374843 -883.712494371835 -1270.74281970184 387.030325330004 0.356790939383172
466000 131.32173399772 -79.8334092894087 -913.931216205138 -1265.8404010961 351.909184890964 0.355880713724885
  466000    131.32173   -79.833409   -1265.8404   -1265.8404            0    351.90918   -913.93122   0.35588071 
467000 140.87637084286 -13.7167978061339 -902.576969008114 -1280.09017512043 377.513206112314 0.358779512973602
468000 137.343128815704 29.6485105108527 -926.04262692139 -1294.08763394778 368.045007026393 0.364329699779467
  468000    137.34313    29.648511   -1294.0876   -1294.0876            0    368.04501   -926.04263    0.3643297 
469000 139.160968288556 24.1066035576309 -893.039680386359 -1265.95603953155 372.916359145192 0.356965766554831
470000 144.252536668954 41.1847539881344 -905.09484265819 -1291.65532318388 386.56048052569 0.364866391946985
  470000    144.25254    41.184754   -1291.6553   -1291.6553            0    386.56048   -905.09484   0.36486639 
471000 144.672632634112 33.6283352125299 -910.089813873546 -1297.77604582038 387.686231946832 0.366240761454551
472000 138.525206318156 65.564514197103 -908.36344892727 -1279.57612605443 371.212677127163 0.363061793517536
  472000    138.52521    65.564514   -1279.5761   -1279.5761            0    371.21268   -908.36345   0.36306179 
473000 144.32743925551 137.669801731631 -920.567745004131 -1307.32894560394 386.761200599807 0.371832390778451
474000 142.412196437202 -3.63195172749666 -889.180637144836 -1270.80946918278 381.628832037943 0.359453180656904
  474000     142.4122   -3.6319517   -1270.8095   -1270.8095            0    381.62883   -889.18064   0.35945318 
475000 138.758444164668 74.3011216320956 -931.119616257411 -1302.95731209209 371.837695834678 0.369002882137185
476000 139.878946684531 -22.4292975914799 -855.09884265773 -1229.93920314227 374.840360484537 0.347842984254375
  476000    139.87895   -22.429298   -1229.9392   -1229.9392            0    374.84036   -855.09884   0.34784298 
477000 139.186005723393 -29.391386809688 -889.401814796908 -1262.38526796391 372.983453167004 0.354948673367654
478000 140.551367127074 20.1201413565776 -887.320465373065 -1263.96274335165 376.642277978586 0.35914513114788
  478000    140.55137    20.120141   -1263.9627   -1263.9627            0    376.64228   -887.32047   0.35914513 
479000 136.081925744324 56.4939593271339 -950.107342718758 -1314.77264304071 364.665300321949 0.371356931696464
480000 138.585097366374 31.1915205451502 -925.326006560302 -1296.69917661822 371.373170057913 0.365700237694487
  480000     138.5851    31.191521   -1296.6992   -1296.6992            0    371.37317   -925.32601   0.36570024 
481000 139.017465338255 16.387470932874 -911.356610548983 -1283.88841791639 372.53180736741 0.363084330440657
482000 142.514707064376 -37.4968410042246 -884.180419754839 -1266.08395446502 381.903534710179 0.356118588025296
  482000    142.51471   -37.496841    -1266.084    -1266.084            0    381.90353   -884.18042   0.35611859 
483000 146.683006227137 5.7368512211155 -902.004614462389 -1295.07814149672 393.073527034329 0.363447880612547
484000 134.436121975871 52.7221376186691 -971.356319716666 -1331.61128029503 360.254960578364 0.376145601487104
  484000    134.43612    52.722138   -1331.6113   -1331.6113            0    360.25496   -971.35632    0.3761456 
485000 137.569706469148 -51.9972174853241 -906.75845914096 -1275.41063723425 368.652178093289 0.357387660849365
486000 141.706840031567 16.5384181642562 -928.304292923639 -1308.04294737857 379.738654454935 0.366610717074467
  486000    141.70684    16.538418   -1308.0429   -1308.0429            0    379.73865   -928.30429   0.36661072 
487000 137.126410999767 -102.890913883206 -953.810738051664 -1321.27499589332 367.464257841653 0.366212583367488
488000 146.413082897329 -42.2368185693443 -916.283865460071 -1308.63406592778 392.350200467706 0.364737667210385
  488000    146.41308   -42.236819   -1308.6341   -1308.6341            0     392.3502   -916.28387   0.36473767 
489000 146.083824630419 58.5839420609813 -910.222452604394 -1301.69032381251 391.467871208111 0.368063097301727
490000 146.002965594077 92.9457997751368 -912.312747256572 -1303.56393660476 391.251189348192 0.369629742899698
  490000    146.00297      92.9458   -1303.5639   -1303.5639            0    391.25119   -912.31275   0.36962974 
491000 137.987329816864 -77.7530452156157 -911.799312027284 -1281.57061554949 369.771303522204 0.357998528089362
492000 135.923163240342 -18.8957866720968 -937.643078672799 -1301.88293545493 364.239856782126 0.366646507591421
  492000    135.92316   -18.895787   -1301.8829   -1301.8829            0    364.23986   -937.64308   0.36664651 
493000 143.343421883233 -29.3180961511902 -889.148438371379 -1273.27272015466 384.124281783286 0.35999835261076
494000 139.615531839132 -4.51816822783229 -908.849026068486 -1282.98350108601 374.134475017519 0.361262302773522
  494000    139.61553   -4.5181682   -1282.9835   -1282.9835            0    374.13448   -908.84903    0.3612623 
495000 146.165270147093 127.296388629273 -941.817526919873 -1333.50365160753 391.686124687662 0.377345029188793
496000 146.724345372945 137.529384783573 -867.738583309733 -1260.92288884708 393.184305537344 0.359594258724134
  496000    146.72435    137.52938   -1260.9229   -1260.9229            0    393.18431   -867.73858   0.35959426 
497000 136.285319923121 32.0485743084549 -910.987138559291 -1276.19748407287 365.21034551358 0.362357332409658
498000 145.203900462361 29.4571849346468 -902.706027828071 -1291.81592379994 389.109895971867 0.36459638065391
  498000     145.2039    29.457185   -1291.8159   -1291.8159            0     389.1099   -902.70603   0.36459638 
499000 136.135199458622 -7.49119751155176 -918.794632452904 -1283.60269291671 364.808060463808 0.362148495817426
500000 130.875256374347 -109.935086304303 -916.526548780096 -1267.23928604788 350.712737267786 0.355686830625116
  500000    130.87526   -109.93509   -1267.2393   -1267.2393            0    350.71274   -916.52655   0.35568683 
501000 142.165521556588 -16.2650056368548 -900.469444035765 -1281.43724949778 380.967805462013 0.360238036654937
502000 140.003411713594 -92.9629553253313 -929.780046419104 -1304.95394184559 375.173895426482 0.365524313934044
  502000    140.00341   -92.962955   -1304.9539   -1304.9539            0     375.1739   -929.78005   0.36552431 
503000 140.416221070048 78.2913539927519 -893.624708285842 -1269.90482885665 376.280120570811 0.362460210401909
504000 141.554819462025 -9.86479321232181 -915.731922813699 -1295.06320041573 379.331277602028 0.364031903110177
  504000    141.55482   -9.8647932   -1295.0632   -1295.0632            0    379.33128   -915.73192    0.3640319 
505000 136.447968440779 56.2500710111889 -969.937708011239 -1335.58391060293 365.646202591691 0.374635103188219
506000 140.301447322662 -57.7153930413333 -906.657235903264 -1282.6297917271 375.972555823835 0.358687901928772
  506000    140.30145   -57.715393   -1282.6298   -1282.6298            0    375.97256   -906.65724    0.3586879 
507000 133.29700122944 57.8465815606716 -911.098709776894 -1268.30111354561 357.20240376872 0.360518834168287
508000 144.162640657818 24.8766852134241 -896.561731039282 -1282.8813128878 386.319581848519 0.363453679739411
  508000    144.16264    24.876685   -1282.8813   -1282.8813            0    386.31958   -896.56173   0.36345368 
509000 142.682415945868 66.9782752482564 -885.023956097862 -1267.3769083872 382.35295228934 0.359697802437666
510000 142.121628433945 20.0828427056311 -914.487239441674 -1295.33742238576 380.850182944083 0.365079825489744
  510000    142.12163    20.082843   -1295.3374   -1295.3374            0    380.85018   -914.48724   0.36507983 
511000 141.372637382048 33.8694073495555 -884.543383645086 -1263.38645913986 378.843075494769 0.358106124535341
512000 133.751083658433 1.08131727269957 -922.858809223763 -1281.2780395801 358.419230356336 0.361169247859476
  512000    133.75108    1.0813173    -1281.278    -1281.278            0    358.41923   -922.85881   0.36116925 
513000 136.888510371496 44.5682024374071 -908.709654004622 -1275.53639805757 366.826744052951 0.36275344446765
514000 139.796105095682 -29.115292869299 -921.849477982394 -1296.46784386543 374.618365883038 0.363355305981973
  514000    139.79611   -29.115293   -1296.4678   -1296.4678            0    374.61837   -921.84948   0.36335531 
515000 136.78296824161 -101.249881365962 -888.8827752504 -1255.42669296708 366.543917716677 0.351708009744129
516000 138.808264064063 86.0109939489496 -900.363647880775 -1272.33484850292 371.971200622146 0.363026402273303
  516000    138.80826    86.010994   -1272.3348   -1272.3348            0     371.9712   -900.36365    0.3630264 
517000 135.400286804192 80.1420390701813 -943.443141140198 -1306.28182071546 362.838679575257 0.369818597834989
518000 142.540979020179 -0.535147989539812 -886.089540954102 -1268.06347789147 381.97393693737 0.358411096589539
  518000    142.54098  -0.53514799   -1268.0635   -1268.0635            0    381.97394   -886.08954    0.3584111 
519000 142.237182098693 -7.31551762644418 -921.342142249928 -1302.50197992316 381.159837673235 0.366384277670003
520000 139.027796170193 -74.0938380385215 -930.262768611328 -1302.82226000739 372.559491396063 0.364059106225176
  520000     139.0278   -74.093838   -1302.8223   -1302.8223            0    372.55949   -930.26277   0.36405911 
521000 136.157977119202 -56.9536547984185 -935.978058655471 -1300.84715751501 364.869098859544 0.364347481232646
522000 137.123728158276 -135.591528072235 -905.893912984348 -1273.35098148625 367.457068501905 0.354697134281045
  522000    137.12373   -135.59153    -1273.351    -1273.351            0    367.45707   -905.89391   0.35469713 
523000 137.312420328739 -34.9597801265861 -908.365918412322 -1276.32863442497 367.962716012651 0.360420300551404
524000 136.915162022127 55.5963180683505 -888.077716445791 -1254.97588021248 366.898163766688 0.358127805351582
  524000    136.91516    55.596318   -1254.9759   -1254.9759            0    366.89816   -888.07772   0.35812781 
525000 140.302546738416 -14.3485938972772 -915.376651559877 -1291.35215354114 375.97550198126 0.363753351098688
526000 135.242011175519 5.45820655014005 -917.289684604922 -1279.70422534361 362.414540738685 0.363211188600732
  526000    135.24201    5.4582066   -1279.7042   -1279.7042            0    362.41454   -917.28968   0.36321119 
527000 139.373728008896 3.89079361642738 -940.158937136947 -1313.64543876719 373.486501630241 0.367635373377758
528000 136.460292903495 84.4506267770403 -916.573553296684 -1282.25278234559 365.679229048902 0.364879931911951
  528000    136.46029    84.450627   -1282.2528   -1282.2528            0    365.67923   -916.57355   0.36487993 
529000 137.959053411844 74.7592568211094 -889.503367858379 -1259.19889773414 369.695529875761 0.359191888990685
530000 141.12071332673 -21.880338778691 -876.500602543182 -1254.66858499537 378.167982452191 0.354249839330664
  530000    141.12071   -21.880339   -1254.6686   -1254.6686            0    378.16798    -876.5006   0.35424984 
531000 140.620607422305 134.066714344365 -919.512315148066 -1296.34013968558 376.827824537518 0.369734705613555
532000 138.700427150259 19.8725266879975 -894.662330346956 -1266.34455518967 371.682224842717 0.359897653467027
  532000    138.70043    19.872527   -1266.3446   -1266.3446            0    371.68222   -894.66233   0.35989765 
533000 135.627128352339 -20.6229464909755 -884.005434290556 -1247.45199210407 363.446557813518 0.351268351214766
534000 138.426119196795 -3.96559782386419 -920.546591186657 -1291.49373977525 370.947148588589 0.363697555537723
  534000    138.42612   -3.9655978   -1291.4937   -1291.4937            0    370.94715   -920.54659   0.36369756 
535000 141.158183517501 -22.9420029266419 -910.927169176123 -1289.19556230589 378.268393129771 0.362550289420693
536000 143.807356604506 -10.7599112930054 -926.297361756095 -1311.66487178984 385.36751003375 0.367199494520651
  536000    143.80736   -10.759911   -1311.6649   -1311.6649            0    385.36751   -926.29736   0.36719949 
537000 138.826023830544 -41.182592570929 -912.405264578554 -1284.42405690358 372.018792325027 0.36084964296947
538000 138.689034856061 -39.2368697744067 -893.941792038211 -1265.59348840066 371.651696362448 0.354939448646627
  538000    138.68903    -39.23687   -1265.5935   -1265.5935            0     371.6517   -893.94179   0.35493945 
539000 140.313181780242 58.8548858382398 -919.348862020968 -1295.35286323679 376.004001215821 0.367050410335869
540000 137.17726223306 -71.0138894553068 -921.923135863227 -1289.52366220754 367.600526344315 0.361751126996968
  540000    137.17726   -71.013889   -1289.5237   -1289.5237            0    367.60053   -921.92314   0.36175113 
541000 140.369888885443 -36.1960492432574 -883.452698452502 -1259.60866043339 376.155961980892 0.355340626487579
542000 133.955392194054 7.01321914261702 -926.904531258032 -1285.87125705208 358.96672579405 0.361547783407004
  542000    133.95539    7.0132191   -1285.8713   -1285.8713            0    358.96673   -926.90453   0.36154778 
543000 141.315062867216 -50.13926028699 -902.082310141795 -1280.77110043206 378.68879029027 0.357961321916506
544000 139.703101865933 -92.986786825528 -900.307887461006 -1274.67702810328 374.369140642273 0.357573524335825
  544000     139.7031   -92.986787    -1274.677    -1274.677            0    374.36914   -900.30789   0.35757352 
545000 142.011105436221 57.7550652830888 -908.191427969479 -1288.74543710549 380.554009136011 0.364905829006613
546000 143.319819985589 -24.6123386589545 -870.37023347882 -1254.43126811855 384.061034639734 0.353921380654328
  546000    143.31982   -24.612339   -1254.4313   -1254.4313            0    384.06103   -870.37023   0.35392138 
547000 133.900785833184 -73.9007878485482 -901.745884112873 -1260.56627860777 358.820394494894 0.354268496590993
548000 136.671082841405 -73.9304933452612 -903.131261299686 -1269.37535431265 366.244093012961 0.356654306064834
  548000    136.67108   -73.930493   -1269.3754   -1269.3754            0    366.24409   -903.13126   0.35665431 
549000 140.140756141721 -0.91839457797544 -929.827748747375 -1305.36969266271 375.541943915336 0.367517680712133
550000 140.743499490996 -27.6319579230653 -915.585021639015 -1292.7421659807 377.157144341683 0.36266443600544
  550000     140.7435   -27.631958   -1292.7422   -1292.7422            0    377.15714   -915.58502   0.36266444 
551000 141.457945319814 58.2637687936714 -906.557944335116 -1285.62962362554 379.071679290424 0.363240599122441
552000 135.369937938262 21.7074919185262 -944.536220376778 -1307.29357263213 362.75735225535 0.367652862151008
  552000    135.36994    21.707492   -1307.2936   -1307.2936            0    362.75735   -944.53622   0.36765286 
553000 146.282537559852 -30.3489248416479 -876.768448656321 -1268.76882048634 392.000371830021 0.356868381980809
554000 141.143911405138 -31.8157069188558 -893.618260353341 -1271.8484078152 378.230147461858 0.357621833404995
  554000    141.14391   -31.815707   -1271.8484   -1271.8484            0    378.23015   -893.61826   0.35762183 
555000 139.494687798389 83.6924929461585 -893.39309174092 -1267.20373515355 373.810643412635 0.359113347105162
556000 144.190117078596 81.2347835731954 -898.975140561295 -1285.3683522999 386.393211738603 0.365312770265319
  556000    144.19012    81.234784   -1285.3684   -1285.3684            0    386.39321   -898.97514   0.36531277 
557000 147.593590884318 -15.4299580574896 -891.881184439563 -1287.39484910175 395.513664662183 0.361577043107699
558000 140.254114681074 -99.4488270064122 -936.558827197445 -1312.40454345853 375.845716261084 0.364342948713022
  558000    140.25411   -99.448827   -1312.4045   -1312.4045            0    375.84572   -936.55883   0.36434295 
559000 137.124608789911 -80.451273623397 -935.0820123648 -1302.54144073777 367.459428372972 0.364096292966486
560000 145.335104352014 30.1326517396037 -900.932558782545 -1290.39404814613 389.461489363583 0.362553436334783
  560000     145.3351    30.132652    -1290.394    -1290.394            0    389.46149   -900.93256   0.36255344 
561000 141.20139093975 161.352325161842 -901.057610281057 -1279.44178842434 378.38417814328 0.366087080868224
562000 144.254118522769 35.9092604592996 -939.472696603538 -1326.0374160992 386.564719495658 0.372381022059039
  562000    144.25412     35.90926   -1326.0374   -1326.0374            0    386.56472    -939.4727   0.37238102 
563000 138.977059742326 8.15562169853796 -905.834966994059 -1278.2584975371 372.423530543039 0.361391942756583
564000 141.172188066533 -36.4580708487389 -946.600002802088 -1324.90592459741 378.305921795322 0.370280293155801
  564000    141.17219   -36.458071   -1324.9059   -1324.9059            0    378.30592       -946.6   0.37028029 
565000 137.819877745655 7.15609150071014 -924.585349069773 -1293.90792319972 369.322574129943 0.363553205458008
566000 144.548604391631 -29.4551434970765 -885.939336497014 -1273.29320397997 387.353867482958 0.357883383052705
  566000     144.5486   -29.455143   -1273.2932   -1273.2932            0    387.35387   -885.93934   0.35788338 
567000 145.192736037353 -2.59191158682235 -904.089475368472 -1293.16945349213 389.079978123658 0.361582295548106
568000 144.092946571806 -11.5337986471918 -914.093022796093 -1300.22584204063 386.132819244542 0.365728039421853
  568000    144.09295   -11.533799   -1300.2258   -1300.2258            0    386.13282   -914.09302   0.36572804 
569000 139.23212476641 -23.5771141667043 -942.701202625863 -1315.80824321699 373.107040591124 0.369032132636702
570000 134.80430887271 -48.4468137896876 -914.271614449447 -1275.51322321475 361.241608765299 0.358485813284347
  570000    134.80431   -48.446814   -1275.5132   -1275.5132            0    361.24161   -914.27161   0.35848581 
571000 138.032413962326 -15.0633372966259 -937.17517889332 -1307.06729657475 369.892117681431 0.3666686344811
572000 141.28632654058 -1.7929957225066 -907.688679471354 -1286.30046364104 378.611784169688 0.362942568256649
  572000    141.28633   -1.7929957   -1286.3005   -1286.3005            0    378.61178   -907.68868   0.36294257 
573000 139.137426388086 67.4669150896321 -906.500481903085 -1279.35375468204 372.853272778958 0.363230347330096
574000 144.263097114858 -55.2725230692278 -874.855814323185 -1261.44459418515 386.588779861962 0.354932894252601
  574000     144.2631   -55.272523   -1261.4446   -1261.4446            0    386.58878   -874.85581   0.35493289 
575000 137.023703519318 -24.2126758679963 -894.206670343767 -1261.39569799597 367.189027652205 0.357265414057324
576000 141.163415048692 -74.408421346775 -906.995723824717 -1285.27813614096 378.282412316248 0.361090015596916
  576000    141.16342   -74.408421   -1285.2781   -1285.2781            0    378.28241   -906.99572   0.36109002 
577000 142.586325924779 62.068945016144 -881.034675467786 -1263.13013069272 382.095455224931 0.35823146325053
578000 142.531665917027 66.2774396462985 -928.174785539345 -1310.12376570498 381.948980165637 0.371028904292542
  578000    142.53167     66.27744   -1310.1238   -1310.1238            0    381.94898   -928.17479    0.3710289 
579000 141.705760750469 -48.3042171832025 -905.138157400462 -1284.87391965378 379.735762253315 0.361160395619556
580000 141.245718597159 21.0646130163876 -923.028919528992 -1301.53188463397 378.502965104982 0.36806639337737
  580000    141.24572    21.064613   -1301.5319   -1301.5319            0    378.50297   -923.02892   0.36806639 
581000 147.362504472006 71.8704715445785 -919.655011485841 -1314.54942274251 394.894411256668 0.37034119815043
582000 147.695937474459 -0.231262589739842 -903.061797725469 -1298.84972548194 395.787927756467 0.365971077706627
  582000    147.69594  -0.23126259   -1298.8497   -1298.8497            0    395.78793    -903.0618   0.36597108 
583000 140.027874364544 -6.70490355960665 -900.463043819414 -1275.7024929916 375.239449172186 0.357981741726412
584000 147.25997438014 35.0809549778632 -889.367088254884 -1283.98674467885 394.619656423963 0.362647278541081
  584000    147.25997    35.080955   -1283.9867   -1283.9867            0    394.61966   -889.36709   0.36264728 
585000 148.455407343028 79.8901689555063 -884.26229051431 -1282.08540631057 397.823115796263 0.363774295189214
586000 135.808921631669 135.88629251887 -943.046872192193 -1306.98059022512 363.933718032929 0.372473154677538
  586000    135.80892    135.88629   -1306.9806   -1306.9806            0    363.93372   -943.04687   0.37247315 
587000 142.230536176246 -59.7694311623681 -939.755236777306 -1320.89726505159 381.142028274287 0.368012004957528
588000 142.166323986163 -105.13172115402 -902.277420806293 -1283.24737657754 380.969955771249 0.357426483449509
  588000    142.16632   -105.13172   -1283.2474   -1283.2474            0    380.96996   -902.27742   0.35742648 
589000 139.778943893998 10.873002175433 -917.876197373871 -1292.44857555699 374.572378183116 0.363535948055536
590000 144.302663478317 58.4638348260576 -900.782230135334 -1287.47703788994 386.694807754603 0.362955330067811
  590000    144.30266    58.463835    -1287.477    -1287.477            0    386.69481   -900.78223   0.36295533 
591000 143.60774992096 -4.8772821280357 -887.349671320392 -1272.18228569623 384.832614375834 0.358677787617271
592000 141.796744033891 27.0654122031424 -916.763581465486 -1296.74315601196 379.979574546477 0.364632357336952
  592000    141.79674    27.065412   -1296.7432   -1296.7432            0    379.97957   -916.76358   0.36463236 
593000 133.39247242937 2.93450434777877 -953.340916695808 -1310.79915924403 357.458242548221 0.370352999221059
594000 130.95396393381 -30.1241786961779 -947.918096360979 -1298.84175007231 350.923653711333 0.365704378124464
  594000    130.95396   -30.124179   -1298.8418   -1298.8418            0    350.92365    -947.9181   0.36570438 
595000 134.09413613309 -36.6905647228525 -891.514727585462 -1250.85325220526 359.338524619794 0.353553308859195
596000 140.624576438479 -77.1912391740274 -893.28816852148 -1270.12662902309 376.838460501605 0.355100427085496
  596000    140.62458   -77.191239   -1270.1266   -1270.1266            0    376.83846   -893.28817   0.35510043 
597000 135.296733940981 13.3609658665377 -914.715518747861 -1277.2767027207 362.561183972843 0.360673144155513
598000 146.715464636608 -16.0615006540232 -878.99109711921 -1272.15160451903 393.160507399819 0.35759000009181
  598000    146.71546   -16.061501   -1272.1516   -1272.1516            0    393.16051    -878.9911      0.35759 
599000 142.170729802797 14.2513036535724 -952.490329757491 -1333.47209200809 380.981762250599 0.373630965251267
600000 137.039944472903 -61.3430949314286 -916.113716093478 -1283.34626541239 367.232549318907 0.360070668510292
  600000    137.03994   -61.343095   -1283.3463   -1283.3463            0    367.23255   -916.11372   0.36007067 
601000 138.348351265696 17.5438698558946 -901.452219186214 -1272.19096929871 370.738750112493 0.359892431573661
602000 133.591895538261 -31.2882648042741 -912.354290483087 -1270.34693675537 357.99264627228 0.356730548225365
  602000     133.5919   -31.288265   -1270.3469   -1270.3469            0    357.99265   -912.35429   0.35673055 
603000 144.249130729033 -84.4222708777712 -906.309487083679 -1292.86084054788 386.551353464198 0.362570694064583
604000 135.661689190401 21.9971137012913 -922.545849043403 -1286.08502120172 363.539172158313 0.362934120950994
  604000    135.66169    21.997114    -1286.085    -1286.085            0    363.53917   -922.54585   0.36293412 
605000 134.083441102895 0.973788719625076 -927.408791493203 -1286.71865612471 359.309864631504 0.36274318254187
606000 139.692833790275 16.4026550063064 -931.148700618299 -1305.49032540295 374.341624784652 0.368737635315269
  606000    139.69283    16.402655   -1305.4903   -1305.4903            0    374.34162    -931.1487   0.36873764 
607000 141.730618106541 146.787595247339 -896.87312251766 -1276.67549622704 379.802373709375 0.364781102793096
608000 144.141843623717 -65.2652678113529 -886.377506848875 -1272.64135788197 386.263851033095 0.356589867505989
  608000    144.14184   -65.265268   -1272.6414   -1272.6414            0    386.26385   -886.37751   0.35658987 
609000 139.651024481031 34.1864148794013 -915.157407746502 -1289.3869941085 374.229586362002 0.365602479769191
610000 140.355880759927 79.3906878226057 -923.615052587647 -1299.73347631891 376.118423731266 0.368047069640807
  610000    140.35588    79.390688   -1299.7335   -1299.7335            0    376.11842   -923.61505   0.36804707 
611000 149.697820210988 -21.0584227433503 -901.520384826659 -1302.67285431292 401.152469486257 0.365211991144573
612000 133.21619568927 26.7283722097999 -925.992633055003 -1282.97849832008 356.985865265076 0.36299859955954
  612000     133.2162    26.728372   -1282.9785   -1282.9785            0    356.98587   -925.99263    0.3629986 
613000 142.284904247187 15.2244182102733 -883.975068370873 -1265.2627893873 381.287721016429 0.35847323292258
614000 141.745873578719 -12.0771336844469 -906.404356641776 -1286.2476111758 379.843254534019 0.361443057924137
  614000    141.74587   -12.077134   -1286.2476   -1286.2476            0    379.84325   -906.40436   0.36144306 
615000 141.702645609275 18.8401974146742 -906.687919718085 -1286.41533417728 379.727414459199 0.36275828820267
616000 131.285312189192 -17.2568820444368 -956.240598528037 -1308.05218214189 351.811583613848 0.366264812170746
  616000    131.28531   -17.256882   -1308.0522   -1308.0522            0    351.81158    -956.2406   0.36626481 
617000 147.645749364979 7.85285205618371 -904.403663540651 -1300.05709979932 395.653436258671 0.366696365254273
618000 138.182986435567 35.6064239194973 -935.850705038341 -1306.14631903917 370.29561400083 0.36737601719229
  618000    138.18299    35.606424   -1306.1463   -1306.1463            0    370.29561   -935.85071   0.36737602 
619000 139.830829788743 54.6929648625457 -878.789909441062 -1253.50132875904 374.711419317977 0.354625092961571
620000 135.438880869138 14.5922739662874 -917.552969490849 -1280.49507144352 362.942101952676 0.362677181653123
  620000    135.43888    14.592274   -1280.4951   -1280.4951            0     362.9421   -917.55297   0.36267718 
621000 139.299273333162 -41.8240412815852 -907.676548071202 -1280.96352991556 373.286981844358 0.358827863026219
622000 140.193476936552 -40.4265726880514 -909.381000109188 -1285.06422248142 375.683222372229 0.360441372177591
  622000    140.19348   -40.426573   -1285.0642   -1285.0642            0    375.68322     -909.381   0.36044137 
623000 141.449904317074 -62.9876249545274 -915.482610763014 -1294.53274219054 379.050131427527 0.362269200263137
624000 137.30148326275 22.5263948346261 -942.201477037222 -1310.13488446659 367.933407429372 0.367813100957094
  624000    137.30148    22.526395   -1310.1349   -1310.1349            0    367.93341   -942.20148    0.3678131 
625000 136.57515405 -25.9689048451068 -919.790004291513 -1285.77703229503 365.987028003513 0.361932649260486
626000 140.802049190755 102.194334504923 -878.454179005146 -1255.76822180142 377.31404279627 0.358402322140648
  626000    140.80205    102.19433   -1255.7682   -1255.7682            0    377.31404   -878.45418   0.35840232 
627000 141.798849968818 127.057458150993 -897.667274877211 -1277.65249279909 379.98521792188 0.364576646017286
628000 134.750103251252 -33.5224483663343 -921.671286032381 -1282.76763737925 361.096351346873 0.360699400913248
  628000     134.7501   -33.522448   -1282.7676   -1282.7676            0    361.09635   -921.67129    0.3606994 
629000 135.888449368421 -11.5398022922825 -946.313676395796 -1310.46050874091 364.146832345118 0.36735679339287
630000 134.662572301517 10.9375122606802 -931.114863895089 -1291.97665433391 360.861790438816 0.364456896487176
  630000    134.66257    10.937512   -1291.9767   -1291.9767            0    360.86179   -931.11486    0.3644569 
631000 143.91051744024 -57.7791002038267 -909.756830112075 -1295.4007852133 385.643955101223 0.362655684021609
632000 140.117116185398 50.8236022046893 -929.673779917827 -1305.15237470193 375.478594784103 0.368518290263173
  632000    140.11712    50.823602   -1305.1524   -1305.1524            0    375.47859   -929.67378   0.36851829 
633000 138.230808580219 29.9505210258426 -919.540948972821 -1289.96471428137 370.423765308553 0.363592480470444
634000 138.808509363114 69.420273209251 -914.444913798348 -1286.41677176019 371.971857961846 0.365750323107298
  634000    138.80851    69.420273   -1286.4168   -1286.4168            0    371.97186   -914.44491   0.36575032 
635000 137.869606745086 41.7237493446691 -936.628521242788 -1306.08435657118 369.455835328395 0.368453780383735
636000 138.037720693684 135.118451272527 -913.994143722966 -1283.90048210839 369.906338385422 0.364247350511893
  636000    138.03772    135.11845   -1283.9005   -1283.9005            0    369.90634   -913.99414   0.36424735 
637000 142.175000276833 -5.50512587218819 -907.414536597176 -1288.40774264304 380.99320604586 0.362796639633782
638000 140.6803907215 -9.36533612208251 -920.947223917675 -1297.93525264569 376.988028728015 0.364414216976753
  638000    140.68039   -9.3653361   -1297.9353   -1297.9353            0    376.98803   -920.94722   0.36441422 
639000 140.271813715226 60.7601722328375 -909.626004328064 -1285.51914954467 375.893145216611 0.363188946102626
640000 139.193561557049 54.9788729062866 -915.838205734195 -1288.8419066331 373.003700898906 0.365287319130595
  640000    139.19356    54.978873   -1288.8419   -1288.8419            0     373.0037   -915.83821   0.36528732 
641000 140.286744165592 42.9706648607254 -887.538257491067 -1263.4714125557 375.933155064628 0.357921305085785
642000 148.651937094025 -57.1729256357934 -895.088192855586 -1293.4379589052 398.349766049612 0.361166301602976
  642000    148.65194   -57.172926    -1293.438    -1293.438            0    398.34977   -895.08819    0.3611663 
643000 140.661099278459 30.3185346538452 -927.683845568897 -1304.62017808647 376.936332517577 0.368729029332802
644000 141.596301930771 -2.72290344949581 -917.048054471332 -1296.49049464576 379.442440174431 0.364687437186532
  644000     141.5963   -2.7229034   -1296.4905   -1296.4905            0    379.44244   -917.04805   0.36468744 
645000 136.899777459151 20.7298363724051 -917.671484305112 -1284.52842131632 366.856937011208 0.363530087694524
646000 141.045345568395 -110.925212851606 -919.724034913678 -1297.6900507485 377.966015834818 0.361562706204753
  646000    141.04535   -110.92521   -1297.6901   -1297.6901            0    377.96602   -919.72403   0.36156271 
647000 138.72682768897 -104.122767527474 -903.743131538768 -1275.4961031785 371.75297163973 0.356352453007922
648000 143.503504095261 31.7764691345204 -862.692491515065 -1247.24575332348 384.553261808415 0.352845891535769
  648000     143.5035    31.776469   -1247.2458   -1247.2458            0    384.55326   -862.69249   0.35284589 
649000 143.090104100559 -39.4338440253198 -914.36183498033 -1297.80728888262 383.445453902285 0.364868402870717
650000 135.962541206156 22.1291577397848 -946.060896454403 -1310.40627627092 364.345379816513 0.3685260049821
  650000    135.96254    22.129158   -1310.4063   -1310.4063            0    364.34538    -946.0609     0.368526 
651000 142.096082168545 2.9634113260072 -892.334342992297 -1273.11606837677 380.781725384468 0.359082989928611
652000 140.409275631477 -58.2678492843316 -910.455026179178 -1286.71653472324 376.261508544059 0.359118431716533
  652000    140.40928   -58.267849   -1286.7165   -1286.7165            0    376.26151   -910.45503   0.35911843 
653000 131.913652968146 -46.2883256999418 -926.373080769516 -1279.86845947671 353.495378707196 0.360449942263199
654000 138.827273988901 -16.9369750335531 -911.07653090546 -1283.09867334014 372.022142434679 0.360076127753728
  654000    138.82727   -16.936975   -1283.0987   -1283.0987            0    372.02214   -911.07653   0.36007613 
[...]
3091000 142.393788411466 -12.3426882319237 -921.936420324723 -1303.51592348819 381.579503163469 0.365296535529562
3092000 141.439195450109 26.5189789145697 -901.038528648181 -1280.05996300836 379.021434360179 0.362005105985687
 3092000     141.4392    26.518979     -1280.06     -1280.06            0    379.02143   -901.03853   0.36200511 
3093000 137.155596222821 22.1421098965213 -926.577581306771 -1294.12004819839 367.542466891619 0.365264260475226
3094000 141.655378272938 18.6858410444523 -870.982618021927 -1250.58336792001 379.600749898079 0.353772392476626
 3094000    141.65538    18.685841   -1250.5834   -1250.5834            0    379.60075   -870.98262   0.35377239 
3095000 136.978741391979 7.77052992425327 -944.523501044226 -1311.59204151505 367.068540470829 0.367441295479048
3096000 137.453874003643 23.3948071471684 -906.515047137362 -1274.85682338566 368.341776248302 0.360316364509522
 3096000    137.45387    23.394807   -1274.8568   -1274.8568            0    368.34178   -906.51505   0.36031636 
3097000 136.864347056896 -19.8496552961183 -892.964639850379 -1259.72663230368 366.761992453302 0.354773328445434
3098000 132.343631626204 57.874505118217 -935.013419011776 -1289.66103226897 354.647613257194 0.365260132640226
 3098000    132.34363    57.874505    -1289.661    -1289.661            0    354.64761   -935.01342   0.36526013 
3099000 135.893857353028 98.8620228937308 -898.118855756238 -1262.28018013856 364.161324382324 0.360844738620324
3100000 143.490397998358 -31.8562837519921 -852.708441606058 -1237.22658237443 384.518140768373 0.349562390087534
 3100000     143.4904   -31.856284   -1237.2266   -1237.2266            0    384.51814   -852.70844   0.34956239 
3101000 148.401678813018 -54.031534579063 -834.890445659248 -1232.56958252205 397.679136862803 0.345587635721469
3102000 137.351903301821 163.047258588879 -897.487382636689 -1265.55590307677 368.068520440078 0.362904775107205
 3102000     137.3519    163.04726   -1265.5559   -1265.5559            0    368.06852   -897.48738   0.36290478 
3103000 144.748037811738 35.7032422027826 -908.420835113101 -1296.30913395158 387.888298838479 0.366166443732677
3104000 136.589383117266 29.5153915139532 -911.226185237726 -1277.25134355913 366.025158321402 0.361428442597811
 3104000    136.58938    29.515392   -1277.2513   -1277.2513            0    366.02516   -911.22619   0.36142844 
3105000 135.315252479991 23.4166899517947 -880.122214746589 -1242.73302374166 362.61080899507 0.352182868651936
3106000 145.031691084734 34.9899035491138 -928.506112815318 -1317.15453101145 388.648418196131 0.371104194075258
 3106000    145.03169    34.989904   -1317.1545   -1317.1545            0    388.64842   -928.50611   0.37110419 
3107000 135.204281530271 -36.2082632623122 -929.032206855513 -1291.34564164394 362.313434788428 0.362457778468967
3108000 137.920730364408 -33.7310750461771 -910.984123607648 -1280.57695736469 369.592833757038 0.360293890553083
 3108000    137.92073   -33.731075    -1280.577    -1280.577            0    369.59283   -910.98412   0.36029389 
3109000 135.056310276994 77.3143661090717 -891.448839033183 -1253.36574811682 361.916909083635 0.356491368683584
3110000 145.419779572856 43.6162764648208 -893.411975673513 -1283.10037331069 389.688397637179 0.363088715683814
 3110000    145.41978    43.616276   -1283.1004   -1283.1004            0     389.6884   -893.41198   0.36308872 
3111000 136.090038378999 -83.7387241237059 -969.959723633352 -1334.64676377375 364.687040140399 0.37057252407828
3112000 140.290562113602 -29.5900962545707 -891.67353805517 -1267.61692425924 375.943386204069 0.356538790563117
 3112000    140.29056   -29.590096   -1267.6169   -1267.6169            0    375.94339   -891.67354   0.35653879 
3113000 136.108750740889 63.9454516045958 -910.388837187426 -1275.12602174657 364.737184559147 0.362321957578083
3114000 138.756282124323 -27.9691798637454 -891.852076285195 -1263.68397839607 371.831902110878 0.354748730668164
 3114000    138.75628    -27.96918    -1263.684    -1263.684            0     371.8319   -891.85208   0.35474873 
3115000 135.544069647617 -60.894121478926 -931.372618526643 -1294.59659992278 363.223981396141 0.361014904478471
3116000 142.029900011799 20.7903269854122 -895.22037515511 -1275.82474902185 380.604373866742 0.36145516869453
 3116000     142.0299    20.790327   -1275.8247   -1275.8247            0    380.60437   -895.22038   0.36145517 
3117000 134.098116106866 -95.1578173383333 -963.508978901602 -1322.8581688491 359.349189947494 0.366311271468442
3118000 145.488351627425 39.2317753430142 -902.636815111868 -1292.50896859124 389.872153479376 0.365776047248656
 3118000    145.48835    39.231775    -1292.509    -1292.509            0    389.87215   -902.63682   0.36577605 
3119000 138.47111051621 -21.6683435100313 -872.172643462536 -1243.24035745992 371.067713997381 0.351731605171582
3120000 145.467177235515 37.9155965324887 -917.410625416965 -1307.22603685699 389.81541144003 0.367162642171941
 3120000    145.46718    37.915597    -1307.226    -1307.226            0    389.81541   -917.41063   0.36716264 
3121000 139.62339951645 74.6810113339052 -915.794185426967 -1289.94974383889 374.155558411925 0.366644845256264
3122000 135.823438791882 -22.5131338478468 -946.814112608584 -1310.78673297597 363.972620367384 0.368095718027563
 3122000    135.82344   -22.513134   -1310.7867   -1310.7867            0    363.97262   -946.81411   0.36809572 
3123000 137.980435488234 36.9245949019037 -919.239094253601 -1288.99192271083 369.752828457228 0.364361077619526
3124000 135.172254045482 -87.283661689442 -901.420633133387 -1263.64824232598 362.227609192593 0.353361623375984
 3124000    135.17225   -87.283662   -1263.6482   -1263.6482            0    362.22761   -901.42063   0.35336162 
3125000 145.126532325014 -12.9630027006276 -900.778635412467 -1289.68120425484 388.902568842372 0.363602236633204
3126000 141.484883569456 24.0969359617586 -917.79372682533 -1296.93759384269 379.143867017355 0.366024603733054
 3126000    141.48488    24.096936   -1296.9376   -1296.9376            0    379.14387   -917.79373    0.3660246 
3127000 139.773307895898 -67.4359101459149 -928.210339030728 -1302.76761415788 374.557275127155 0.365455882125708
3128000 136.0520851833 -60.2982805165595 -932.483006257637 -1297.06834138885 364.585335131215 0.362145316334286
 3128000    136.05209   -60.298281   -1297.0683   -1297.0683            0    364.58534   -932.48301   0.36214532 
3129000 139.429376254489 11.2139600072231 -926.311332467382 -1299.94695738553 373.635624918145 0.365975704648942
3130000 144.295958186671 -98.0413599774618 -935.991002630394 -1322.66784189154 386.67683926115 0.367108237366315
 3130000    144.29596    -98.04136   -1322.6678   -1322.6678            0    386.67684     -935.991   0.36710824 
3131000 139.098344454502 -53.2041818104033 -924.096812842595 -1296.84535587901 372.748543036418 0.363453896532731
3132000 138.294462713081 -48.4528946208962 -909.952175870733 -1280.54651822947 370.594342358738 0.359556210712294
 3132000    138.29446   -48.452895   -1280.5465   -1280.5465            0    370.59434   -909.95218   0.35955621 
3133000 142.392959467923 86.3806930276957 -884.3913458181 -1265.96862762157 381.577281803474 0.359206576377723
3134000 137.202992646762 -38.1057518015492 -889.11888001429 -1256.78835738931 367.669477375019 0.353638930442537
 3134000    137.20299   -38.105752   -1256.7884   -1256.7884            0    367.66948   -889.11888   0.35363893 
3135000 139.193289347018 96.3917980557332 -908.720355904819 -1281.72332734938 373.002971444556 0.366091081512566
3136000 141.236997415062 65.8928739329408 -939.10765227379 -1317.58724680644 378.47959453265 0.371257896183128
 3136000      141.237    65.892874   -1317.5872   -1317.5872            0    378.47959   -939.10765    0.3712579 
3137000 139.062648534273 2.32144177694396 -932.418614488895 -1305.07150144608 372.652886957189 0.366032906691647
3138000 139.225038495914 8.46579311435251 -897.589752657763 -1270.67780382804 373.088051170272 0.358193259267503
 3138000    139.22504    8.4657931   -1270.6778   -1270.6778            0    373.08805   -897.58975   0.35819326 
3139000 129.902410942077 -115.370779563242 -948.449639795509 -1296.55539623329 348.105756437781 0.362091736540813
3140000 141.821476871827 -69.7307292117696 -883.897598894612 -1263.94345121989 380.04585232528 0.354976136069313
 3140000    141.82148   -69.730729   -1263.9435   -1263.9435            0    380.04585    -883.8976   0.35497614 
3141000 134.322670398671 22.5376450753188 -926.783883896521 -1286.73482281113 359.950938914608 0.364225416665462
3142000 141.888905699172 33.0695563145003 -927.586265412637 -1307.81281001898 380.226544606343 0.368958235758425
 3142000    141.88891    33.069556   -1307.8128   -1307.8128            0    380.22654   -927.58627   0.36895824 
3143000 144.993070470493 76.278333230399 -932.361809391946 -1320.90673406523 388.544924673284 0.373389214840051
3144000 143.377811906052 7.53233272434637 -925.769085385876 -1309.98552377211 384.216438386237 0.369681665022894
 3144000    143.37781    7.5323327   -1309.9855   -1309.9855            0    384.21644   -925.76909   0.36968167 
3145000 140.664578502866 0.943493488387338 -916.149448204059 -1293.0951041671 376.945655963041 0.364257786975766
3146000 135.510815763354 14.3154061184969 -940.346485996723 -1303.48135535521 363.134869358482 0.368349479319855
 3146000    135.51082    14.315406   -1303.4814   -1303.4814            0    363.13487   -940.34649   0.36834948 
3147000 139.203902539115 67.3843000911957 -932.643318526136 -1305.67473065348 373.031412127346 0.369278678972286
3148000 140.421986639732 90.0453159337836 -947.098758495723 -1323.39432934172 376.295570845995 0.374072977416655
 3148000    140.42199    90.045316   -1323.3943   -1323.3943            0    376.29557   -947.09876   0.37407298 
3149000 143.947352631788 55.9702970259573 -893.797803215987 -1279.54046735675 385.742664140759 0.363456884840685
3150000 139.404184795687 118.123660836723 -916.738692664557 -1290.30681081544 373.568118150886 0.367282658545262
 3150000    139.40418    118.12366   -1290.3068   -1290.3068            0    373.56812   -916.73869   0.36728266 
3151000 136.210273569903 46.5818500421746 -949.204547898832 -1314.21378807984 365.009240181004 0.37064501963686
3152000 138.289935998248 83.6669152277804 -901.101458150787 -1271.68367005344 370.582211902654 0.361669828856733
 3152000    138.28994    83.666915   -1271.6837   -1271.6837            0    370.58221   -901.10146   0.36166983 
3153000 145.61008871797 -0.7528092605391 -871.995877607332 -1262.19425584022 390.198378232892 0.356043205027036
3154000 145.841149762351 -86.681758813965 -873.698535640303 -1264.51609929904 390.817563658737 0.354758658308618
 3154000    145.84115   -86.681759   -1264.5161   -1264.5161            0    390.81756   -873.69854   0.35475866 
3155000 137.593914851571 52.4984870602298 -928.075351836648 -1296.79240230001 368.717050463358 0.368011978559443
3156000 138.299877064084 28.3589610168055 -882.377554539745 -1252.98640599603 370.608851456281 0.355772287912907
 3156000    138.29988    28.358961   -1252.9864   -1252.9864            0    370.60885   -882.37755   0.35577229 
3157000 140.950238751216 54.7214926282126 -913.773701518329 -1291.48485502768 377.711153509352 0.36463450526728
3158000 137.834693352788 -56.8926726363707 -903.196930249705 -1272.55920647671 369.362276227007 0.358351293733846
 3158000    137.83469   -56.892673   -1272.5592   -1272.5592            0    369.36228   -903.19693   0.35835129 
3159000 135.945995030993 3.0944871442046 -898.599966462283 -1262.90100669511 364.301040232826 0.357532004938016
3160000 143.156807235444 -43.5757613177539 -908.812043283001 -1292.43624479326 383.624201510258 0.36122297652925
 3160000    143.15681   -43.575761   -1292.4362   -1292.4362            0     383.6242   -908.81204   0.36122298 
3161000 134.020659288912 -39.508455581086 -917.168753822362 -1276.31037899866 359.141625176296 0.358611172202715
3162000 136.386951749118 130.609460759477 -914.284260984502 -1279.76695420441 365.482693219911 0.365838317500067
 3162000    136.38695    130.60946    -1279.767    -1279.767            0    365.48269   -914.28426   0.36583832 
3163000 144.019651116795 56.2429737370213 -902.1626634389 -1288.09906931725 385.936405878346 0.365247670396709
3164000 137.181530629475 -40.4669267025137 -924.080015559091 -1291.69198013117 367.611964572076 0.361313633680713
 3164000    137.18153   -40.466927    -1291.692    -1291.692            0    367.61196   -924.08002   0.36131363 
3165000 140.657145416655 41.2394978661666 -900.891348962038 -1277.81708612542 376.925737163387 0.360758577349933
3166000 136.226917554179 -33.7982711157953 -913.664276925948 -1278.71811879444 365.053841868491 0.3604673161937
 3166000    136.22692   -33.798271   -1278.7181   -1278.7181            0    365.05384   -913.66428   0.36046732 
3167000 144.639522884617 -16.276783600041 -891.890145363618 -1279.48765151768 387.597506154061 0.359968071551526
3168000 138.567874383926 89.8343718434798 -904.011189826419 -1275.33820662752 371.327016801098 0.361968055288006
 3168000    138.56787    89.834372   -1275.3382   -1275.3382            0    371.32702   -904.01119   0.36196806 
3169000 141.847700289789 18.5535888128673 -914.785800139911 -1294.90192462319 380.116124483278 0.365044847528201
3170000 136.906618084816 -25.2020093667513 -920.569129404133 -1287.44439756989 366.875268165759 0.363024436405789
 3170000    136.90662   -25.202009   -1287.4444   -1287.4444            0    366.87527   -920.56913   0.36302444 
3171000 139.126823886583 -84.9855896048426 -910.693616895798 -1283.51847764007 372.824860744271 0.357395872096862
3172000 134.140836991852 31.4746044769811 -954.426794931389 -1313.89046609502 359.463671163631 0.371104383976548
 3172000    134.14084    31.474604   -1313.8905   -1313.8905            0    359.46367   -954.42679   0.37110438 
3173000 136.004157771879 61.219047299867 -927.223113693256 -1291.68001542831 364.456901735054 0.366420108848057
3174000 142.397505451793 99.829621445501 -909.875795547986 -1291.46525944371 381.589463895726 0.366035648756376
 3174000    142.39751    99.829621   -1291.4653   -1291.4653            0    381.58946    -909.8758   0.36603565 
3175000 140.774389975953 -9.35168784471509 -899.144872321181 -1276.3847953854 377.239923064223 0.35969671871869
3176000 140.145855764527 84.1706704613116 -924.446922034913 -1300.00253165546 375.555609620547 0.366292150369229
 3176000    140.14586     84.17067   -1300.0025   -1300.0025            0    375.55561   -924.44692   0.36629215 
3177000 148.899230300448 47.0157959924835 -860.339617004494 -1259.35206658753 399.012449583038 0.357214259452602
3178000 140.619119733225 49.5005716836054 -878.728080466207 -1255.55191837154 376.823837905331 0.355848411944405
 3178000    140.61912    49.500572   -1255.5519   -1255.5519            0    376.82384   -878.72808   0.35584841 
3179000 143.883091124317 15.2736242075589 -926.900417866521 -1312.47087734606 385.570459479539 0.369200545400958
3180000 143.693597056551 57.5634326380637 -939.979205780053 -1325.04186886596 385.062663085909 0.372963610949579
 3180000     143.6936    57.563433   -1325.0419   -1325.0419            0    385.06266   -939.97921   0.37296361 
3181000 141.786108510181 -30.8745828659724 -890.178037520547 -1270.12911154113 379.951074020587 0.356316598098235
3182000 137.874268429147 -16.4685941339625 -925.681108818481 -1295.14943628651 369.468327468028 0.364788593722209
 3182000    137.87427   -16.468594   -1295.1494   -1295.1494            0    369.46833   -925.68111   0.36478859 
3183000 141.258942818604 23.9893585758379 -891.150785168449 -1269.68918785751 378.538402689058 0.35815139665325
3184000 146.122174486176 49.3982947938132 -895.385575618111 -1286.9562147845 391.570639166387 0.363853138395124
 3184000    146.12217    49.398295   -1286.9562   -1286.9562            0    391.57064   -895.38558   0.36385314 
3185000 141.221786703038 -40.8105639861309 -904.146129325259 -1282.58496297921 378.438833653951 0.360085302875993
3186000 141.668201054331 -47.0709723639267 -889.085050665749 -1268.72016238963 379.635111723884 0.35479275812647
 3186000     141.6682   -47.070972   -1268.7202   -1268.7202            0    379.63511   -889.08505   0.35479276 
3187000 136.381295036923 -2.37684701771753 -933.121996503213 -1298.5895311586 365.46753465539 0.366408738739425
3188000 134.709468382786 10.5122976472672 -915.580877201531 -1276.56833733135 360.987460129823 0.35974270757205
 3188000    134.70947    10.512298   -1276.5683   -1276.5683            0    360.98746   -915.58088   0.35974271 
3189000 139.646003768527 21.7775418133165 -906.029019084909 -1280.24515120144 374.21613211653 0.362401853363593
3190000 139.350943893652 -13.2170634016609 -903.363418344652 -1276.78886428228 373.425445937629 0.357502094080791
 3190000    139.35094   -13.217063   -1276.7889   -1276.7889            0    373.42545   -903.36342   0.35750209 
3191000 136.123749897847 -7.97300249697204 -944.153278642204 -1308.93065716573 364.77737852353 0.366561322594755
3192000 138.633483294406 8.26622267258568 -894.781064827707 -1266.28389699086 371.502832163155 0.359137001060986
 3192000    138.63348    8.2662227   -1266.2839   -1266.2839            0    371.50283   -894.78106     0.359137 
3193000 137.199136785784 -21.0034563041914 -939.87838586438 -1307.53753050275 367.659144638368 0.366081351692081
3194000 144.411172245712 -145.746960407464 -892.697521437204 -1279.68310536971 386.985583932508 0.355615392562143
 3194000    144.41117   -145.74696   -1279.6831   -1279.6831            0    386.98558   -892.69752   0.35561539 
3195000 143.410888080708 49.6458946443783 -920.980109935112 -1305.285184142 384.305074206888 0.368688505149101
3196000 138.291252666123 0.903034811488853 -916.636796546667 -1287.22253678773 370.585740241068 0.363216736048781
 3196000    138.29125   0.90303481   -1287.2225   -1287.2225            0    370.58574    -916.6368   0.36321674 
3197000 136.357744316194 112.73071649257 -931.214724390069 -1296.61914904315 365.404424653084 0.368058862825266
3198000 134.580100021685 65.6561334351198 -944.267714304426 -1304.90849979693 360.640785492506 0.369902170381956
 3198000     134.5801    65.656133   -1304.9085   -1304.9085            0    360.64079   -944.26771   0.36990217 
3199000 142.460964955545 5.30229177976503 -938.984173018513 -1320.74369240741 381.759519388896 0.369430679136588
3200000 144.31530641088 -6.19799531310464 -901.137413367486 -1287.86610099831 386.728687630825 0.361461668746974
 3200000    144.31531   -6.1979953   -1287.8661   -1287.8661            0    386.72869   -901.13741   0.36146167 
Loop time of 621.076 on 36 procs for 3000000 steps with 900 atoms

Performance: 834.681 ns/day, 0.029 hours/ns, 4830.329 timesteps/s
99.6% CPU use with 36 MPI tasks x 1 OpenMP threads

MPI task timing breakdown:
Section |  min time  |  avg time  |  max time  |%varavg| %total
---------------------------------------------------------------
Pair    | 137.01     | 142.87     | 156.33     |  38.6 | 23.00
Bond    | 0.47471    | 0.60004    | 0.74882    |   6.0 |  0.10
Neigh   | 10.842     | 11.206     | 12.51      |  12.0 |  1.80
Comm    | 328.67     | 343.36     | 355.17     |  40.0 | 55.28
Output  | 0.21302    | 0.21435    | 0.23006    |   0.6 |  0.03
Modify  | 95.795     | 101.83     | 112.02     |  41.1 | 16.40
Other   |            | 21         |            |       |  3.38

Nlocal:    25 ave 30 max 19 min
Histogram: 1 2 1 3 10 5 7 3 0 4
Nghost:    1244.83 ave 1261 max 1229 min
Histogram: 2 0 5 5 9 5 3 1 3 3
Neighs:    3184.53 ave 3954 max 2378 min
Histogram: 1 1 3 4 9 7 6 1 2 2

Total # of neighbors = 114643
Ave neighs/atom = 127.381
Ave special neighs/atom = 0
Neighbor list builds = 53325
Dangerous builds = 0
unfix integrator
write_restart production.restart
undump traj1
Total wall time: 0:10:21
