LAMMPS (12 Dec 2018)
OMP_NUM_THREADS environment is not set. Defaulting to 1 thread. (../comm.cpp:87)
  using 1 OpenMP thread(s) per MPI task
# Lammps script to read in mBuild topologies and perform energy minimization
# Initialization
units           real
boundary        p p p
atom_style      full

# Assume ff info is included in data file
pair_style     lj/cut/coul/cut ${rcut} # read in from job.sp.r_cut
pair_style     lj/cut/coul/cut 14.0 
bond_style  none
angle_style none
dihedral_style  none
read_restart equilibrated_npt.restart
  restoring atom style full from restart
  triclinic box = (-0.359612 -0.359612 -0.359612) to (40.3396 40.3396 40.3396) with tilt (0 0 0)
  3 by 3 by 4 MPI processor grid
  restoring pair style lj/cut/coul/cut from restart
  restoring bond style harmonic from restart
  restoring angle style harmonic from restart
  restoring dihedral style opls from restart
  900 atoms
  0 = max # of 1-2 neighbors
  0 = max # of 1-3 neighbors
  0 = max # of 1-4 neighbors
  1 = max # of special neighbors

pair_modify shift no  #TODO: Look to make sure this shift is okay

neighbor        2.5 bin #skin cutoff

timestep 2.0
thermo 2000
thermo_style custom step temp press pe epair emol ke etotal density

variable tsample equal ${T} #kelvin, modified by job.sp.temperature
variable tsample equal 140.0 
variable psample equal ${P}/101.325 #kPa to atm modified by job.sp.pressure
variable psample equal 1318.0/101.325 
# ________________________________________________________________________________________

# Production
variable startstep equal step
variable t equal temp
variable pressure equal press
variable e equal etotal
variable p equal pe
variable k equal ke
variable d equal density
variable filename string "prlog.txt"
fix output_data all print 1000 "${startstep} ${t} ${pressure} $e $p $k $d" file ${filename} title "step temp press etotal pe ke density"
fix output_data all print 1000 "${startstep} ${t} ${pressure} $e $p $k $d" file prlog.txt title "step temp press etotal pe ke density"
dump traj1 all dcd 10000 prod.dcd
fix integrator all npt temp ${tsample} ${tsample} 100.0 iso ${psample} ${psample} 1000.0 pchain 10
fix integrator all npt temp 140 ${tsample} 100.0 iso ${psample} ${psample} 1000.0 pchain 10
fix integrator all npt temp 140 140 100.0 iso ${psample} ${psample} 1000.0 pchain 10
fix integrator all npt temp 140 140 100.0 iso 13.007648655317 ${psample} 1000.0 pchain 10
fix integrator all npt temp 140 140 100.0 iso 13.007648655317 13.007648655317 1000.0 pchain 10
fix zeromom all momentum 100 linear 1 1 1 rescale
run 3000000
Neighbor list info ...
  update every 1 steps, delay 10 steps, check yes
  max neighbors/atom: 2000, page size: 100000
  master list distance cutoff = 16.5
  ghost atom cutoff = 16.5
  binsize = 8.25, bins = 5 5 5
  1 neighbor lists, perpetual/occasional/extra = 1 0 0
  (1) pair lj/cut/coul/cut, perpetual
      attributes: half, newton on
      pair build: half/bin/newton/tri
      stencil: half/bin/3d/newton/tri
      bin: standard
Per MPI rank memory allocation (min/avg/max) = 5.728 | 5.779 | 5.981 Mbytes
Step Temp Press PotEng E_pair E_mol KinEng TotEng Density 
  200000    141.61585    15.230982   -1254.6191   -1254.6191            0    379.49482   -875.12426   0.35564668 
201000 138.854425815 -5.13716519653991 -913.955368781839 -1286.05027127458 372.094902492742 0.361920563341179
202000 129.544577741553 46.8543509460276 -939.953409448348 -1287.10026299862 347.146853550269 0.362860764435712
  202000    129.54458    46.854351   -1287.1003   -1287.1003            0    347.14685   -939.95341   0.36286076 
203000 138.602104055757 -60.3436522017232 -928.112170810513 -1299.53091451429 371.418743703772 0.364801797696521
204000 140.411028909858 78.7960539105247 -902.247833023403 -1278.51403991211 376.266206888705 0.362188382417473
  204000    140.41103    78.796054    -1278.514    -1278.514            0    376.26621   -902.24783   0.36218838 
205000 141.549474499244 35.3948213732309 -929.011811763232 -1308.32876621068 379.31695444745 0.368467418350146
206000 142.646323546163 51.1100609612663 -905.591643869508 -1287.84787761444 382.256233744936 0.364816728948292
  206000    142.64632    51.110061   -1287.8479   -1287.8479            0    382.25623   -905.59164   0.36481673 
207000 139.196447347277 24.1475411015202 -898.434943551499 -1271.44637764168 373.011434090176 0.359486659519546
208000 148.369837854924 -13.0045869024629 -908.942810686204 -1306.53662179775 397.59381111155 0.365450680908225
  208000    148.36984   -13.004587   -1306.5366   -1306.5366            0    397.59381   -908.94281   0.36545068 
209000 150.619677883177 18.7801990785313 -884.011629027797 -1287.63444498398 403.622815956181 0.362431643470586
210000 138.862060121726 -18.7468009996593 -902.59739831182 -1274.71275882454 372.115360512716 0.359312721335238
  210000    138.86206   -18.746801   -1274.7128   -1274.7128            0    372.11536    -902.5974   0.35931272 
211000 140.352378873575 43.3070141332188 -881.376595350545 -1257.48563490804 376.109039557496 0.356444393590234
212000 143.663738583932 66.6433272670968 -923.30144148883 -1308.28409138544 384.982649896611 0.368655932692722
  212000    143.66374    66.643327   -1308.2841   -1308.2841            0    384.98265   -923.30144   0.36865593 
213000 141.857907985503 -41.6394950060733 -898.477523909639 -1278.62100244749 380.143478537851 0.359071120688365
214000 138.59033653932 8.00243757137267 -919.766096520044 -1291.15330624241 371.387209722369 0.362041228508041
  214000    138.59034    8.0024376   -1291.1533   -1291.1533            0    371.38721    -919.7661   0.36204123 
215000 135.02854826122 9.76526432538396 -928.583824736415 -1290.42633860728 361.842513870864 0.363232908820991
216000 136.405639274212 -62.6678091071346 -909.574592151951 -1275.10736323425 365.532771082295 0.358672178901859
  216000    136.40564   -62.667809   -1275.1074   -1275.1074            0    365.53277   -909.57459   0.35867218 
217000 135.196736230816 75.5310441017524 -925.517611235116 -1287.81082652065 362.29321528553 0.36621417690204
218000 138.707417788172 27.7597925372601 -925.54475942478 -1297.24571741711 371.700957992326 0.36661467973076
  218000    138.70742    27.759793   -1297.2457   -1297.2457            0    371.70096   -925.54476   0.36661468 
219000 137.36076074287 50.4418073651104 -931.131464156731 -1299.22372030883 368.092256152094 0.36683127305124
220000 139.539682993936 33.3533923660315 -932.162258556181 -1306.09347776466 373.931219208482 0.36827333821757
  220000    139.53968    33.353392   -1306.0935   -1306.0935            0    373.93122   -932.16226   0.36827334 
221000 132.360719674081 -93.6248365051282 -929.88513555539 -1284.57854047872 354.69340492333 0.359325279422
222000 143.354282665621 114.53766577135 -915.996978160041 -1300.15036410576 384.153385945721 0.368559871013506
  222000    143.35428    114.53767   -1300.1504   -1300.1504            0    384.15339   -915.99698   0.36855987 
223000 139.227105646446 -9.30017248337449 -935.837639810028 -1308.93123042329 373.093590613262 0.368858788616386
224000 134.116163010729 -70.7925667853046 -943.834322606738 -1303.23187371301 359.397551106268 0.363910531186939
  224000    134.11616   -70.792567   -1303.2319   -1303.2319            0    359.39755   -943.83432   0.36391053 
225000 146.496327748661 74.338615255216 -895.333833503987 -1287.90710921512 392.573275711132 0.364866027308603
226000 137.40241976474 -50.2823553436787 -917.440311822692 -1285.64420366511 368.20389184242 0.360829554470683
  226000    137.40242   -50.282355   -1285.6442   -1285.6442            0    368.20389   -917.44031   0.36082955 
227000 139.964460651628 -44.0146029172515 -930.667209513298 -1305.73672590023 375.06951638693 0.36588576776588
228000 143.824187023867 -47.9287098269318 -894.485517358771 -1279.8981286791 385.412611320326 0.359419455693551
  228000    143.82419    -47.92871   -1279.8981   -1279.8981            0    385.41261   -894.48552   0.35941946 
229000 143.253260579223 -2.37527528578015 -885.417354336583 -1269.30002652459 383.882672188004 0.358838222747168
230000 142.167428258107 35.5525512768387 -866.957971798302 -1247.93088674034 380.972914942043 0.352971779411911
  230000    142.16743    35.552551   -1247.9309   -1247.9309            0    380.97291   -866.95797   0.35297178 
231000 145.792568066299 -37.2155161985079 -876.118774015355 -1266.80615095985 390.687376944492 0.355968090607299
232000 145.709273306275 25.3419240308193 -878.08998215109 -1268.55415010943 390.464167958338 0.358334167134655
  232000    145.70927    25.341924   -1268.5542   -1268.5542            0    390.46417   -878.08998   0.35833417 
233000 138.603295055021 95.3113616421399 -919.64057104896 -1291.06250633091 371.421935281948 0.366997586546023
234000 144.744623877023 72.5037545459408 -872.754843920865 -1260.63399427382 387.879150352955 0.356750110446373
  234000    144.74462    72.503755    -1260.634    -1260.634            0    387.87915   -872.75484   0.35675011 
235000 141.231872164266 40.8584281534861 -912.327023434081 -1290.79288358496 378.465860150876 0.364918342844697
236000 135.01535082869 -135.2946359962 -926.238067951054 -1288.04521602539 361.807148074337 0.357075159096075
  236000    135.01535   -135.29464   -1288.0452   -1288.0452            0    361.80715   -926.23807   0.35707516 
237000 147.959465281904 34.4093527664911 -901.56495724064 -1298.05907317397 396.494115933329 0.365845057333678
238000 136.194293066204 21.2059049239555 -922.690929252073 -1287.6573457065 364.966416454424 0.363440443506218
  238000    136.19429    21.205905   -1287.6573   -1287.6573            0    364.96642   -922.69093   0.36344044 
239000 139.711508712694 63.6757583746176 -897.94468482291 -1272.33635369795 374.391668875042 0.36020519134375
240000 144.765988663837 40.2312756219888 -888.557349441376 -1276.49375204409 387.93640260271 0.360798427138748
  240000    144.76599    40.231276   -1276.4938   -1276.4938            0     387.9364   -888.55735   0.36079843 
241000 142.78237162382 94.3398981727909 -908.262576987194 -1290.8833853281 382.620808340907 0.365022505073318
242000 141.351132626538 3.44920681857515 -919.980993134751 -1298.7664412989 378.785448164149 0.36523907866838
  242000    141.35113    3.4492068   -1298.7664   -1298.7664            0    378.78545   -919.98099   0.36523908 
243000 137.505697159712 38.6052657847111 -916.232555142284 -1284.71320440159 368.480649259308 0.363869789398189
244000 136.026664574582 29.2070884394711 -961.481768098767 -1325.99898239864 364.517214299871 0.373244729630918
  244000    136.02666    29.207088    -1325.999    -1325.999            0    364.51721   -961.48177   0.37324473 
245000 136.92600362206 42.6029580701303 -901.328383542222 -1268.25560006719 366.927216524971 0.359650220175576
246000 144.7448025448 97.5006939272347 -909.963485348365 -1297.84311448598 387.879629137615 0.367951690299025
  246000     144.7448    97.500694   -1297.8431   -1297.8431            0    387.87963   -909.96349   0.36795169 
247000 137.286248872809 -48.0419252089561 -953.42830490528 -1321.3208880051 367.892583099817 0.369273200304499
248000 139.23117930519 44.3553410343786 -954.765988198116 -1327.87049519121 373.104506993089 0.374144413326971
  248000    139.23118    44.355341   -1327.8705   -1327.8705            0    373.10451   -954.76599   0.37414441 
249000 135.26155683871 134.517405568132 -929.59008189409 -1292.05700008921 362.466918195121 0.368822107185166
250000 144.462088953967 49.8290860632009 -895.254008223472 -1282.37603611506 387.122027891584 0.363437302677966
  250000    144.46209    49.829086    -1282.376    -1282.376            0    387.12203   -895.25401    0.3634373 
251000 139.398129143101 45.6279532749275 -908.828091656926 -1282.37998218348 373.551890526558 0.364549565275458
252000 142.951965247278 -106.915191281326 -875.60930461884 -1258.68458117287 383.075276554027 0.351552972054044
  252000    142.95197   -106.91519   -1258.6846   -1258.6846            0    383.07528    -875.6093   0.35155297 
253000 144.22862275489 -46.9370987103455 -895.980629964705 -1282.47702722139 386.496397256687 0.35878651906444
254000 142.635767545151 86.1830070802098 -898.208541314928 -1280.43648763479 382.227946319858 0.363939014765016
  254000    142.63577    86.183007   -1280.4365   -1280.4365            0    382.22795   -898.20854   0.36393901 
255000 140.691402334581 19.2391181056063 -951.382368508597 -1328.39990558733 377.017537078734 0.373474662311011
256000 138.29912212839 -44.6809580453521 -848.422785527148 -1219.02961394583 370.606828418687 0.344352405236973
  256000    138.29912   -44.680958   -1219.0296   -1219.0296            0    370.60683   -848.42279   0.34435241 
257000 130.701091478712 -44.6556625028081 -908.722859529831 -1258.96887872595 350.246019196118 0.355695060183042
258000 135.605931482227 74.1442152618838 -880.803676411005 -1244.19343194925 363.389755538249 0.353615338975527
  258000    135.60593    74.144215   -1244.1934   -1244.1934            0    363.38976   -880.80368   0.35361534 
259000 131.196567809966 -63.2332245524874 -918.117744807573 -1269.69151582783 351.573771020253 0.357785094076259
260000 144.890048388273 -74.3997274389977 -908.761131023694 -1297.02998245399 388.268851430295 0.361422259895867
  260000    144.89005   -74.399727     -1297.03     -1297.03            0    388.26885   -908.76113   0.36142226 
261000 140.814087724482 -149.327329905824 -909.939334264243 -1287.28563730002 377.346303035776 0.357575952209797
262000 130.620110349627 80.9727258357302 -931.363496189762 -1281.39250634815 350.029010158388 0.363208149209006
  262000    130.62011    80.972726   -1281.3925   -1281.3925            0    350.02901    -931.3635   0.36320815 
263000 139.387027439458 -26.2943050582456 -940.528222719304 -1314.05036347512 373.522140755814 0.36826724933413
264000 138.0853431679 -55.8996490280488 -906.561080816517 -1276.59503544316 370.033954626645 0.357370044378613
  264000    138.08534   -55.899649    -1276.595    -1276.595            0    370.03395   -906.56108   0.35737004 
265000 140.230340104102 39.4428261412358 -928.91878423114 -1304.70079061155 375.782006380406 0.369491001673274
266000 144.615397010646 -51.7067086677871 -909.831154604655 -1297.36400949053 387.532854885873 0.364241002563441
  266000     144.6154   -51.706709    -1297.364    -1297.364            0    387.53285   -909.83115     0.364241 
267000 141.381416897732 60.8577735184263 -940.983243258493 -1319.84984564492 378.866602386428 0.372262039289109
268000 139.637848774666 66.0585236795218 -886.264695210297 -1260.45897399642 374.194278786125 0.359844175217177
  268000    139.63785    66.058524    -1260.459    -1260.459            0    374.19428    -886.2647   0.35984418 
269000 147.398993099091 47.2874351319041 -897.76874525361 -1292.76093684431 394.992191590697 0.364400678018339
270000 138.170370083295 -12.7883635462172 -924.744133442195 -1295.00593879529 370.261805353099 0.3648240930218
  270000    138.17037   -12.788364   -1295.0059   -1295.0059            0    370.26181   -924.74413   0.36482409 
271000 137.824025440156 -7.47687862504618 -933.071194280593 -1302.40488318755 369.333688906961 0.366980320512678
272000 132.557751898072 3.4005312512441 -921.406334653839 -1276.62773633164 355.221401677797 0.361217394013355
  272000    132.55775    3.4005313   -1276.6277   -1276.6277            0     355.2214   -921.40633   0.36121739 
273000 144.687196116408 -11.7498618057297 -914.528993660674 -1302.25425207348 387.725258412808 0.364590554191109
274000 132.531271333578 -7.2194974931661 -929.009121530471 -1284.15956196231 355.150440431835 0.362311219021456
  274000    132.53127   -7.2194975   -1284.1596   -1284.1596            0    355.15044   -929.00912   0.36231122 
275000 131.736406192241 71.5012422940291 -912.466325165434 -1265.48672713775 353.020401972314 0.36052780961603
276000 140.047927692617 1.46553830553197 -924.185072547087 -1299.47825958978 375.293187042695 0.366480829160479
  276000    140.04793    1.4655383   -1299.4783   -1299.4783            0    375.29319   -924.18507   0.36648083 
277000 142.709346553427 -5.24578581940601 -881.524885062956 -1263.95000460037 382.425119537413 0.356785037307677
278000 140.658070729686 -5.9252734581332 -910.025294603754 -1286.9535113731 376.928216769348 0.362781306097383
  278000    140.65807   -5.9252735   -1286.9535   -1286.9535            0    376.92822   -910.02529   0.36278131 
279000 142.406302647817 -9.21609389152909 -915.016911359933 -1296.62994952618 381.613038166243 0.364530455732366
280000 135.085811981056 -50.3374164091661 -922.457665848047 -1284.45363207107 361.995966223023 0.361294651676565
  280000    135.08581   -50.337416   -1284.4536   -1284.4536            0    361.99597   -922.45767   0.36129465 
281000 143.466636538112 33.7037521380348 -911.319946735073 -1295.77441277229 384.454466037218 0.363218343047185
282000 138.739822082374 132.308045856886 -931.431581114161 -1303.21937445668 371.787793342518 0.369592431961616
  282000    138.73982    132.30805   -1303.2194   -1303.2194            0    371.78779   -931.43158   0.36959243 
283000 144.8216092237 -1.64895799122824 -891.240706530376 -1279.3261582302 388.085451699828 0.36083058368217
284000 133.332181764529 -3.3521029917918 -922.291680365478 -1279.58835911101 357.296678745529 0.361128234984905
  284000    133.33218    -3.352103   -1279.5884   -1279.5884            0    357.29668   -922.29168   0.36112823 
285000 139.398144864489 10.9371830097574 -911.830965345767 -1285.38289800168 373.551932655918 0.362169734281948
286000 139.58194342628 11.9007023101247 -923.706356764626 -1297.75082329209 374.044466527465 0.365185851504249
  286000    139.58194    11.900702   -1297.7508   -1297.7508            0    374.04447   -923.70636   0.36518585 
287000 139.613720205246 42.9582123084707 -899.147815729325 -1273.27743602414 374.129620294811 0.36039046993552
288000 138.281196271517 23.8879627999113 -931.245192979023 -1301.80398461439 370.558791635371 0.366055189766237
  288000     138.2812    23.887963    -1301.804    -1301.804            0    370.55879   -931.24519   0.36605519 
289000 138.340996665237 -84.1353430186956 -901.541560979191 -1272.26060261409 370.719041634894 0.355815845823693
290000 143.116575767168 16.5336075074771 -906.372039731021 -1289.88843103518 383.516391304157 0.364448778370388
  290000    143.11658    16.533608   -1289.8884   -1289.8884            0    383.51639   -906.37204   0.36444878 
291000 141.209601960935 55.5726729653868 -895.877384496882 -1274.28356610969 378.406181612806 0.362308494590868
292000 140.540988293689 111.833510166594 -935.88117262966 -1312.4956379478 376.614465318142 0.37294385381225
  292000    140.54099    111.83351   -1312.4956   -1312.4956            0    376.61447   -935.88117   0.37294385 
293000 136.62569416425 24.0393147258817 -904.066699960426 -1270.18916274589 366.122462785467 0.359504576312841
294000 132.3181713789 -7.40745019126656 -919.028215817135 -1273.60760202155 354.579386204418 0.359268309923866
  294000    132.31817   -7.4074502   -1273.6076   -1273.6076            0    354.57939   -919.02822   0.35926831 
295000 137.217344504714 -23.8790206671241 -945.519187891926 -1313.22712463296 367.707936741032 0.367597307173111
296000 129.974006588283 -23.2786764025151 -927.807059440525 -1276.10467418486 348.297614744332 0.360075179119636
  296000    129.97401   -23.278676   -1276.1047   -1276.1047            0    348.29761   -927.80706   0.36007518 
297000 133.938831918838 21.0693766456165 -958.132561506936 -1317.05490993271 358.92234842577 0.36937857901409
298000 137.397592240097 34.5902981903359 -900.096074854021 -1268.2870301458 368.190955291779 0.358601203152377
  298000    137.39759    34.590298    -1268.287    -1268.287            0    368.19096   -900.09607    0.3586012 
299000 135.072739909201 -4.76909421626692 -899.99557018248 -1261.95650654402 361.960936361542 0.356119149371863
300000 144.883697594997 19.2384045214765 -929.465581156532 -1317.71741405975 388.251832903222 0.370756003415697
  300000     144.8837    19.238405   -1317.7174   -1317.7174            0    388.25183   -929.46558     0.370756 
301000 145.58720207491 69.3604054442211 -914.723523986359 -1304.86057177791 390.137047791548 0.36703577112225
302000 138.326845928722 21.8378295968466 -938.018069903444 -1308.69919112714 370.681121223695 0.368122983900092
  302000    138.32685     21.83783   -1308.6992   -1308.6992            0    370.68112   -938.01807   0.36812298 
303000 139.813675102574 106.771677573201 -936.492386918015 -1311.15783599601 374.665449077996 0.369743118124785
304000 131.161906314193 33.1559040918362 -936.582797819201 -1288.06368475734 351.480886938136 0.363076937712502
  304000    131.16191    33.155904   -1288.0637   -1288.0637            0    351.48089    -936.5828   0.36307694 
305000 139.374518528744 -62.0335822424667 -941.838410937477 -1315.32703096188 373.488620024408 0.366197353025684
306000 141.273779925799 -56.5539680816653 -897.647389558927 -1276.2255519598 378.578162400875 0.360042191091317
  306000    141.27378   -56.553968   -1276.2256   -1276.2256            0    378.57816   -897.64739   0.36004219 
307000 134.612319149236 -66.3846529018743 -944.609159688538 -1305.33628433123 360.727124642691 0.366339524417302
308000 139.695207644504 -46.4915006139899 -926.35757872809 -1300.70556484442 374.347986116333 0.364430542578501
  308000    139.69521   -46.491501   -1300.7056   -1300.7056            0    374.34799   -926.35758   0.36443054 
309000 139.677221600267 77.9946018584931 -938.449250099069 -1312.7490381451 374.299788046036 0.370157082941444
310000 139.87578216045 40.8941072463079 -899.636403757614 -1274.46828411433 374.831880356716 0.361182787425757
  310000    139.87578    40.894107   -1274.4683   -1274.4683            0    374.83188    -899.6364   0.36118279 
311000 140.162862781171 -16.5855344184308 -914.17497167962 -1289.776155823 375.601184143382 0.364303740126302
312000 136.964652742062 -93.9991645796853 -927.726445309949 -1294.75723174603 367.03078643608 0.362033505531513
  312000    136.96465   -93.999165   -1294.7572   -1294.7572            0    367.03079   -927.72645   0.36203351 
313000 145.525222956595 67.6322062488962 -922.583468419288 -1312.55442777793 389.970959358641 0.37026864939047
314000 146.190410337028 -56.9642970868836 -902.450121596957 -1294.20361566422 391.753494067268 0.361827223831567
  314000    146.19041   -56.964297   -1294.2036   -1294.2036            0    391.75349   -902.45012   0.36182722 
315000 138.95294011645 -8.33228122255961 -911.533822674113 -1283.89271869228 372.358896018169 0.362148270530843
316000 142.897489527919 -24.4628062950439 -929.505394715074 -1312.4346900563 382.929295341226 0.368563115108903
  316000    142.89749   -24.462806   -1312.4347   -1312.4347            0     382.9293   -929.50539   0.36856312 
317000 137.512656074755 58.2489213299166 -893.313591466081 -1261.81288886569 368.499297399612 0.359219088551597
318000 130.671972906161 65.6934328236077 -951.540928654115 -1301.70891740683 350.167988752719 0.369083463147495
  318000    130.67197    65.693433   -1301.7089   -1301.7089            0    350.16799   -951.54093   0.36908346 
319000 139.466773434814 83.7694902700389 -910.796949589047 -1284.53278953516 373.735839946115 0.365473867261503
320000 144.246185060805 -46.2795209815709 -860.583754962044 -1247.12721477701 386.543459814962 0.351297067400267
  320000    144.24619   -46.279521   -1247.1272   -1247.1272            0    386.54346   -860.58375   0.35129707 
321000 138.573951221582 46.2353601988056 -904.342223135994 -1275.68552433208 371.343301196083 0.362552680163046
322000 141.563936070988 38.0721116077542 -912.589707876932 -1291.94541569574 379.355707818806 0.36431189302358
  322000    141.56394    38.072112   -1291.9454   -1291.9454            0    379.35571   -912.58971   0.36431189 
323000 141.257135797142 88.5652714625407 -894.138220303462 -1272.67178062995 378.533560326483 0.361837676207384
324000 139.337625062647 19.063902396295 -937.879263527979 -1311.26901835173 373.389754823752 0.369164028511014
  324000    139.33763    19.063902    -1311.269    -1311.269            0    373.38975   -937.87926   0.36916403 
325000 142.631966405743 -2.75860209658938 -925.733147492128 -1307.95090771537 382.217760223239 0.367109042734409
326000 134.251659917048 -42.4213106704835 -921.503790268937 -1281.26443897075 359.760648701817 0.361499827007056
  326000    134.25166   -42.421311   -1281.2644   -1281.2644            0    359.76065   -921.50379   0.36149983 
327000 142.777782029261 -54.0926595359276 -873.363005872841 -1255.97151525583 382.608509382988 0.351971128688718
328000 146.884272223657 21.5382345014329 -892.50739481731 -1286.12026405057 393.612869233261 0.363187575433897
  328000    146.88427    21.538235   -1286.1203   -1286.1203            0    393.61287   -892.50739   0.36318758 
329000 140.510645872149 3.03541665991915 -915.834391759184 -1292.36754702676 376.533155267575 0.364654457237465
330000 137.776431681819 24.0876958326733 -896.871388664666 -1266.07753828173 369.206149617063 0.357930182212845
  330000    137.77643    24.087696   -1266.0775   -1266.0775            0    369.20615   -896.87139   0.35793018 
331000 138.770617090953 7.88567165104997 -897.195269496705 -1269.06558570911 371.870316212404 0.359723708996082
332000 140.088858702395 96.0296872233194 -945.516004577014 -1320.91887642092 375.402871843902 0.372826533563426
  332000    140.08886    96.029687   -1320.9189   -1320.9189            0    375.40287     -945.516   0.37282653 
333000 140.263091388419 -8.15375797017329 -894.656440814209 -1270.52621239095 375.869771576745 0.358037311436895
334000 142.399182508192 81.6642978961768 -913.827941674035 -1295.42189965868 381.593957984649 0.366811434342566
  334000    142.39918    81.664298   -1295.4219   -1295.4219            0    381.59396   -913.82794   0.36681143 
335000 137.344817365284 -47.4973565456564 -905.620064350216 -1273.66959626437 368.049531914149 0.356046101406683
336000 140.226136902745 -66.6296289292324 -888.86254041747 -1264.63328327646 375.770742858988 0.354600494572606
  336000    140.22614   -66.629629   -1264.6333   -1264.6333            0    375.77074   -888.86254   0.35460049 
337000 141.425203071856 152.458926997338 -918.079540731283 -1297.06347904053 378.983938309251 0.369023120388853
338000 142.554137293044 81.4862083950764 -925.77641827383 -1307.78561606969 382.009197795855 0.368187302085494
  338000    142.55414    81.486208   -1307.7856   -1307.7856            0     382.0092   -925.77642    0.3681873 
339000 141.414326082331 70.7485005964775 -927.221654986131 -1306.1764457019 378.954790715771 0.368547256369259
340000 139.864313589137 -117.877359910637 -913.909572039881 -1288.71071951286 374.801147472983 0.357587420225418
  340000    139.86431   -117.87736   -1288.7107   -1288.7107            0    374.80115   -913.90957   0.35758742 
341000 136.438843238118 4.5388127838221 -949.00684670962 -1314.62859605559 365.621749345967 0.368744192333232
342000 141.410005186136 -7.64952924100441 -883.374656633951 -1262.31786843577 378.943211801817 0.354732124463055
  342000    141.41001   -7.6495292   -1262.3179   -1262.3179            0    378.94321   -883.37466   0.35473212 
343000 141.696334626855 53.6606711288882 -890.939990817439 -1270.65049343264 379.7105026152 0.359739880716364
344000 137.960856313165 -38.8368160787602 -900.39368380138 -1270.09404499878 369.700361197395 0.356802450676622
  344000    137.96086   -38.836816    -1270.094    -1270.094            0    369.70036   -900.39368   0.35680245 
345000 139.858357384596 19.08648654118 -925.351149272075 -1300.13633561645 374.785186344376 0.367144026533646
346000 136.872138920976 -59.4663953325159 -936.307444838182 -1303.0903175255 366.782872687317 0.364202110937629
  346000    136.87214   -59.466395   -1303.0903   -1303.0903            0    366.78287   -936.30744   0.36420211 
347000 148.866442058908 34.9303715910327 -875.648159235203 -1274.57274458585 398.924585350644 0.360207673295557
348000 140.665934112731 121.893743431663 -931.756034425708 -1308.70532308189 376.949288656184 0.371976888336635
  348000    140.66593    121.89374   -1308.7053   -1308.7053            0    376.94929   -931.75603   0.37197689 
349000 141.938428543897 41.2771495457104 -935.392168008571 -1315.75142137066 380.359253362085 0.371121380648585
350000 135.03007269733 -7.13958222310964 -920.833820473972 -1282.68041944981 361.846598975841 0.362315887415733
  350000    135.03007   -7.1395822   -1282.6804   -1282.6804            0     361.8466   -920.83382   0.36231589 
351000 133.911309272343 -34.184885924448 -941.804570734744 -1300.65316539715 358.848594662405 0.364974495511618
352000 143.789125733832 43.3745343545896 -894.341872626821 -1279.66052851706 385.318655890241 0.361976762590247
  352000    143.78913    43.374534   -1279.6605   -1279.6605            0    385.31866   -894.34187   0.36197676 
353000 141.375453782559 3.35654883755211 -900.802845685987 -1279.65346842505 378.850622739066 0.359085505229025
354000 130.498274448567 -82.63598222655 -952.977091390199 -1302.67961200777 349.702520617569 0.364938871304057
  354000    130.49827   -82.635982   -1302.6796   -1302.6796            0    349.70252   -952.97709   0.36493887 
355000 145.644643793158 43.580106771664 -922.570815322779 -1312.86179245742 390.290977134637 0.369244188517596
356000 132.977530149728 29.7775251295296 -931.344598408936 -1287.69090011568 356.346301706743 0.363794604075731
  356000    132.97753    29.777525   -1287.6909   -1287.6909            0     356.3463    -931.3446    0.3637946 
357000 146.549987415067 46.1932309809402 -890.775214992528 -1283.4922851 392.717070107469 0.362238622376297
358000 135.880654567041 -0.595773035915119 -946.644663504458 -1310.77060774434 364.125944239878 0.367827354928491
  358000    135.88065  -0.59577304   -1310.7706   -1310.7706            0    364.12594   -946.64466   0.36782735 
359000 145.590694724855 -6.61779481333768 -898.700576807054 -1288.84698402113 390.146407214074 0.362963820739716
360000 133.812055647251 -38.7651087787956 -921.426384514246 -1280.00900445 358.582619935751 0.360131410226187
  360000    133.81206   -38.765109    -1280.009    -1280.009            0    358.58262   -921.42638   0.36013141 
361000 142.973324237984 -28.4651175281425 -897.111752992983 -1280.24426626465 383.132513271671 0.36153718815095
362000 138.241420783244 128.622979800085 -938.556000994858 -1309.00820433574 370.452203340879 0.370206197352482
  362000    138.24142    128.62298   -1309.0082   -1309.0082            0     370.4522     -938.556    0.3702062 
363000 141.871508274391 -17.5555997052307 -880.667264338601 -1260.84718822659 380.179923887993 0.353687743909103
364000 138.948766921431 46.6512548765908 -882.592053068208 -1254.93976597439 372.347712906183 0.356427913050148
  364000    138.94877    46.651255   -1254.9398   -1254.9398            0    372.34771   -882.59205   0.35642791 
365000 141.774001413686 -36.6686856050718 -894.981445693803 -1274.90007574393 379.918630050124 0.35909630932512
366000 142.585481488124 35.5026251184974 -949.35109530836 -1331.44428765566 382.093192347295 0.37432454083251
  366000    142.58548    35.502625   -1331.4443   -1331.4443            0    382.09319    -949.3511   0.37432454 
367000 139.894063970965 -76.4057617154768 -884.479951311578 -1259.36082231775 374.880871006176 0.353104751184349
368000 140.440225925934 19.2054059215598 -866.697028943234 -1243.04147648424 376.344447541002 0.351529354921903
  368000    140.44023    19.205406   -1243.0415   -1243.0415            0    376.34445   -866.69703   0.35152935 
369000 145.217544073546 -18.3163651056489 -898.418024038854 -1287.56448145371 389.146457414858 0.362456513318534
370000 142.233259943513 -6.4619849067487 -915.531525296621 -1296.68085258144 381.149327284814 0.365430503887642
  370000    142.23326   -6.4619849   -1296.6809   -1296.6809            0    381.14933   -915.53153    0.3654305 
371000 139.375359625793 47.3876657726164 -929.160569709099 -1302.65144366184 373.49087395274 0.367501762756654
372000 132.650579013673 69.3088862999409 -948.295367424366 -1303.76552240135 355.470154976987 0.371252378331257
  372000    132.65058    69.308886   -1303.7655   -1303.7655            0    355.47015   -948.29537   0.37125238 
373000 145.394423684595 -9.63267669015326 -895.133908432278 -1284.75435867264 389.620450240365 0.361695725392579
374000 141.128976699441 85.8482633707762 -916.436680199665 -1294.62680641029 378.190126210626 0.36734498388382
  374000    141.12898    85.848263   -1294.6268   -1294.6268            0    378.19013   -916.43668   0.36734498 
375000 139.710591694945 55.0905777918884 -935.267969719688 -1309.65718121804 374.389211498348 0.369448928640271
376000 144.250713938274 40.6149094478966 -913.982547864268 -1300.53814393064 386.555596066368 0.365452669231218
  376000    144.25071    40.614909   -1300.5381   -1300.5381            0     386.5556   -913.98255   0.36545267 
377000 137.070892241678 20.2073719764301 -928.62667786087 -1295.94215940853 367.315481547659 0.366733415174952
378000 143.866032882672 -30.8174469600106 -903.588657889141 -1289.11340557574 385.524747686598 0.361926650859712
  378000    143.86603   -30.817447   -1289.1134   -1289.1134            0    385.52475   -903.58866   0.36192665 
379000 139.76246210529 -18.8342055489846 -902.057746870346 -1276.58595800926 374.528211138918 0.360054201695243
380000 137.823217854067 92.299343416237 -939.028323604353 -1308.35984838392 369.331524779564 0.370878051581179
  380000    137.82322    92.299343   -1308.3598   -1308.3598            0    369.33152   -939.02832   0.37087805 
381000 141.16077727389 62.1491849764099 -895.337571507604 -1273.61291525148 378.275343743878 0.358753049583767
382000 142.449964021764 115.515833648549 -907.297341149712 -1289.02738080572 381.730039656012 0.365886361230349
  382000    142.44996    115.51583   -1289.0274   -1289.0274            0    381.73004   -907.29734   0.36588636 
383000 143.228097936313 97.5733483827704 -913.868771922537 -1297.68401456262 383.81524264008 0.369466151624416
384000 139.315808349881 71.3859075968838 -943.721424186934 -1317.05271571316 373.331291526226 0.371488116976782
  384000    139.31581    71.385908   -1317.0527   -1317.0527            0    373.33129   -943.72142   0.37148812 
385000 145.667316983531 37.5968717330798 -906.529515417751 -1296.88125099427 390.35173557652 0.3661735484461
386000 144.109665656269 87.8575492015903 -881.716993401151 -1267.89461558277 386.177622181622 0.362147565332869
  386000    144.10967    87.857549   -1267.8946   -1267.8946            0    386.17762   -881.71699   0.36214757 
387000 135.230251146128 27.7132741601835 -936.766772326481 -1299.14979914716 362.383026820682 0.366773657537784
388000 140.357550038785 42.4563476275353 -928.545914110115 -1304.66881108846 376.12289697834 0.367005642004829
  388000    140.35755    42.456348   -1304.6688   -1304.6688            0     376.1229   -928.54591   0.36700564 
389000 144.823880634693 43.1611583055899 -883.534258329354 -1271.62579683878 388.091538509428 0.359792386033032
390000 143.416619377595 -62.0847068863202 -894.26331923273 -1278.58375187234 384.320432639605 0.359258445926867
  390000    143.41662   -62.084707   -1278.5838   -1278.5838            0    384.32043   -894.26332   0.35925845 
391000 139.826328489581 65.3406810181689 -918.840088451747 -1293.53944542124 374.699356969494 0.365349274854884
392000 139.938950866466 54.9400628446675 -916.645875681346 -1291.64703226651 375.001156585168 0.365365999442297
  392000    139.93895    54.940063    -1291.647    -1291.647            0    375.00116   -916.64588     0.365366 
393000 143.583494600438 -21.387658924041 -858.045750196492 -1242.81336641997 384.767616223477 0.350230222410384
394000 142.378448284748 24.3658818977788 -895.386878672448 -1276.92527415842 381.538395485973 0.360683280030927
  394000    142.37845    24.365882   -1276.9253   -1276.9253            0     381.5384   -895.38688   0.36068328 
395000 136.005654692587 67.7073912392507 -919.00592537634 -1283.46683848202 364.460913105678 0.364040570078946
396000 138.989738229111 15.9378213350806 -900.010063831887 -1272.46756952751 372.457505695622 0.359824930080158
  396000    138.98974    15.937821   -1272.4676   -1272.4676            0    372.45751   -900.01006   0.35982493 
397000 136.675257726736 113.771550392814 -918.402783125273 -1284.65806377983 366.255280654557 0.36503480118545
398000 142.259800025818 71.184010149745 -907.761751453352 -1288.98219947688 381.220448023526 0.36571709823717
  398000     142.2598     71.18401   -1288.9822   -1288.9822            0    381.22045   -907.76175    0.3657171 
399000 139.73417081983 27.8117035895691 -913.547185451431 -1287.99958306807 374.45239761664 0.363132186671401
400000 140.683306348514 76.0927084848419 -917.209959425137 -1294.2058012995 376.99584187436 0.367124099828173
  400000    140.68331    76.092708   -1294.2058   -1294.2058            0    376.99584   -917.20996    0.3671241 
401000 146.292577290868 63.0922606309949 -941.816859368954 -1333.84413515044 392.027275781491 0.377121248686113
402000 132.962623663006 31.5855986545734 -928.381084113254 -1284.68744018852 356.306356075262 0.363590967722882
  402000    132.96262    31.585599   -1284.6874   -1284.6874            0    356.30636   -928.38108   0.36359097 
403000 141.18543968552 72.17154234309 -931.08693979126 -1309.42837258917 378.341432797911 0.37046669668126
404000 137.297944501835 86.1935823355089 -915.255846861241 -1283.1797713023 367.923924441056 0.364586067321024
  404000    137.29794    86.193582   -1283.1798   -1283.1798            0    367.92392   -915.25585   0.36458607 
405000 139.062850327644 74.0383742945084 -916.505636960634 -1289.15906467325 372.65342771262 0.365139966674843
406000 134.860906286742 -27.4546526070064 -943.191413752006 -1304.58468933766 361.393275585654 0.366146196341648
  406000    134.86091   -27.454653   -1304.5847   -1304.5847            0    361.39328   -943.19141    0.3661462 
407000 142.047955069067 59.1438111880959 -909.437300875766 -1290.09005775035 380.652756874589 0.365714573246384
408000 140.746787549043 54.4353394718431 -894.728762650789 -1271.89471816022 377.165955509429 0.359740008950676
  408000    140.74679    54.435339   -1271.8947   -1271.8947            0    377.16596   -894.72876   0.35974001 
409000 136.859878969452 0.074215409870108 -914.354065373308 -1281.10408447717 366.750019103859 0.360340883660369
410000 142.131566539955 30.7279092382569 -910.941697530724 -1291.81851209685 380.876814566122 0.364018706776444
  410000    142.13157    30.727909   -1291.8185   -1291.8185            0    380.87681    -910.9417   0.36401871 
411000 137.366737747958 23.7969311505314 -899.365471326626 -1267.47374434756 368.108273020931 0.358500625886956
412000 142.256033544077 -3.96568783095034 -938.763181284671 -1319.9735360854 381.21035480073 0.36991933654544
  412000    142.25603   -3.9656878   -1319.9735   -1319.9735            0    381.21035   -938.76318   0.36991934 
413000 141.668817236432 -14.8606767703194 -896.042607204301 -1275.67937014108 379.636762936783 0.360958765121459
414000 137.048748387248 -12.0096601082588 -941.486896504238 -1308.74303809707 367.256141592835 0.36773810201295
  414000    137.04875    -12.00966    -1308.743    -1308.743            0    367.25614    -941.4869    0.3677381 
415000 136.572073010038 -4.90648742483961 -922.749913116586 -1288.7286847087 365.978771592112 0.361630529508851
416000 136.966589818407 37.7720818742619 -916.861725426701 -1283.8977027397 367.035977312996 0.364104613728499
  416000    136.96659    37.772082   -1283.8977   -1283.8977            0    367.03598   -916.86173   0.36410461 
417000 138.329954967412 -54.2588691296331 -921.555766351277 -1292.24521901591 370.689452664636 0.362795667479881
418000 137.377273193316 58.7942674807713 -948.919303710789 -1317.05580907282 368.136505362032 0.371695309575078
  418000    137.37727    58.794267   -1317.0558   -1317.0558            0    368.13651    -948.9193   0.37169531 
419000 143.408258886613 23.5707843221945 -893.028536921492 -1277.32656555014 384.298028628653 0.360106566656676
420000 145.933164807854 125.475519916318 -878.401471120068 -1269.46561193458 391.064140814513 0.36303678578109
  420000    145.93316    125.47552   -1269.4656   -1269.4656            0    391.06414   -878.40147   0.36303679 
421000 139.603526823449 43.3830405914672 -901.981300152117 -1276.08360475005 374.102304597934 0.361039971612685
422000 143.690598810267 18.610809073109 -867.470263118037 -1252.52489165876 385.054628540722 0.354014650730633
  422000     143.6906    18.610809   -1252.5249   -1252.5249            0    385.05463   -867.47026   0.35401465 
423000 144.389506262594 77.7894583572212 -894.172457560841 -1281.09998211333 386.927524552488 0.362058401559485
424000 144.291122833065 -49.2268326396123 -911.714276634335 -1298.37815836519 386.663881730859 0.362766332180625
  424000    144.29112   -49.226833   -1298.3782   -1298.3782            0    386.66388   -911.71428   0.36276633 
425000 139.013584673311 1.10892059512254 -945.816631220197 -1318.33803938257 372.521408162378 0.370818415557614
426000 143.375543956634 0.404185424121263 -919.836016371414 -1304.0463772242 384.210360852786 0.367379398367411
  426000    143.37554   0.40418542   -1304.0464   -1304.0464            0    384.21036   -919.83602    0.3673794 
427000 133.077224210731 21.5776789419565 -936.931754476064 -1293.54521116682 356.613456690753 0.364487079158326
428000 134.399768847011 22.8297621181623 -935.233070668358 -1295.39061401382 360.157543345467 0.365432628355262
  428000    134.39977    22.829762   -1295.3906   -1295.3906            0    360.15754   -935.23307   0.36543263 
429000 139.694821793155 -6.47035312684019 -909.8604094413 -1284.20736157316 374.346952131863 0.360110440562338
430000 149.363660123459 138.897776207201 -856.011324385286 -1256.2683289668 400.257004581512 0.359946896883352
  430000    149.36366    138.89778   -1256.2683   -1256.2683            0      400.257   -856.01132    0.3599469 
431000 145.656902262963 100.438614828309 -899.907759468788 -1290.23158621625 390.323826747461 0.366884651717301
432000 139.33071128049 -31.096053926372 -911.503350324656 -1284.87457795288 373.371227628222 0.360988460127053
  432000    139.33071   -31.096054   -1284.8746   -1284.8746            0    373.37123   -911.50335   0.36098846 
433000 136.647093831748 57.3113106352263 -918.895237968502 -1285.07504647517 366.179808506673 0.364474780867329
434000 143.180953678647 -43.0119174953003 -914.701298985268 -1298.39020688408 383.688907898813 0.363025636592465
  434000    143.18095   -43.011917   -1298.3902   -1298.3902            0    383.68891    -914.7013   0.36302564 
435000 136.017432163744 -21.4337052842311 -934.286594269688 -1298.77906803291 364.492473763224 0.364304386458307
436000 137.822204154551 103.371189034783 -920.246524872473 -1289.57533319255 369.328808320076 0.365256431489199
  436000     137.8222    103.37119   -1289.5753   -1289.5753            0    369.32881   -920.24652   0.36525643 
437000 141.154566995927 43.6521506272652 -903.571975747436 -1281.8306775099 378.258701762468 0.361671702297817
438000 144.181933773294 7.28869943518161 -880.154162701007 -1266.52544524167 386.371282540662 0.356521498347209
  438000    144.18193    7.2886994   -1266.5254   -1266.5254            0    386.37128   -880.15416    0.3565215 
439000 133.420998726118 102.830940391553 -980.319698189195 -1337.85438403078 357.534685841581 0.376777651166991
440000 145.071082195684 150.355356224625 -921.040552867108 -1309.79452932328 388.75397645617 0.3727839046354
  440000    145.07108    150.35536   -1309.7945   -1309.7945            0    388.75398   -921.04055    0.3727839 
441000 137.513430643945 -102.698719522577 -919.597238689456 -1288.09861173949 368.501373050032 0.360202499855348
442000 137.650799396272 42.4789972738319 -915.473133143557 -1284.34261986517 368.869486721615 0.363269188699092
  442000     137.6508    42.478997   -1284.3426   -1284.3426            0    368.86949   -915.47313   0.36326919 
443000 131.896096436727 -18.7045977878721 -926.518834212927 -1279.96716583604 353.448331623113 0.360818179190639
444000 142.287192245407 -45.9710576322395 -893.293110726801 -1274.58696300242 381.293852275621 0.359214512620102
  444000    142.28719   -45.971058    -1274.587    -1274.587            0    381.29385   -893.29311   0.35921451 
445000 140.339620093552 -3.55018426877152 -947.521144914534 -1323.59599415378 376.074849239249 0.37161713408993
446000 137.359765719611 0.746609545146163 -937.717224180628 -1305.8068139209 368.089589740273 0.365342291086438
  446000    137.35977   0.74660955   -1305.8068   -1305.8068            0    368.08959   -937.71722   0.36534229 
447000 139.486251254918 -45.2006451016666 -893.411852240292 -1267.19988784045 373.78803560016 0.357125838744668
448000 137.151390202766 -23.607847670813 -909.283644156976 -1276.81483997378 367.531195816802 0.359370813794883
  448000    137.15139   -23.607848   -1276.8148   -1276.8148            0     367.5312   -909.28364   0.35937081 
449000 137.398622053686 -36.0303521678879 -940.922307599656 -1309.11602253258 368.193714932928 0.367866822575531
450000 135.703433900326 26.66861379379 -916.528790768029 -1280.17982823908 363.651037471052 0.36014595381383
  450000    135.70343    26.668614   -1280.1798   -1280.1798            0    363.65104   -916.52879   0.36014595 
451000 142.374874555016 40.3747627259347 -933.205672532378 -1314.73449132241 381.528818790031 0.370801773996257
452000 144.812905283109 -40.9109613159893 -858.091620723505 -1246.1537480539 388.062127330394 0.35101057001561
  452000    144.81291   -40.910961   -1246.1537   -1246.1537            0    388.06213   -858.09162   0.35101057 
453000 138.492839577734 55.7638412229632 -943.734348736948 -1314.86029114859 371.125942411645 0.370516433962041
454000 142.020408979428 61.8826361085254 -885.372016575746 -1265.95095686525 380.578940289501 0.360963495381703
  454000    142.02041    61.882636    -1265.951    -1265.951            0    380.57894   -885.37202    0.3609635 
455000 142.226125830381 -0.658967785718467 -926.525294255575 -1307.65550391331 381.130209657739 0.366472659989816
456000 133.278097294601 -32.9642392681817 -945.44032332186 -1302.59206930456 357.151745982702 0.365524466642481
  456000     133.2781   -32.964239   -1302.5921   -1302.5921            0    357.15175   -945.44032   0.36552447 
457000 137.022202917901 96.8635097119944 -915.323108209574 -1282.50811462778 367.185006418207 0.365534786744123
458000 139.777200157109 -31.5089350552091 -895.819621462042 -1270.38732686931 374.567705407265 0.358431806527354
  458000     139.7772   -31.508935   -1270.3873   -1270.3873            0    374.56771   -895.81962   0.35843181 
459000 137.436382289397 -25.9790107748127 -905.67801636774 -1273.97291922567 368.294902857926 0.358809155601242
460000 143.915644065666 -15.2178490363076 -899.82598985055 -1285.48368301721 385.65769316666 0.361091248198665
  460000    143.91564   -15.217849   -1285.4837   -1285.4837            0    385.65769   -899.82599   0.36109125 
461000 148.358294270168 8.33569119518491 -879.788882414028 -1277.3517596247 397.562877210674 0.359944035389065
462000 143.205096455377 43.5089461717606 -905.569050480474 -1289.32265494262 383.753604462142 0.363590472908001
  462000     143.2051    43.508946   -1289.3227   -1289.3227            0     383.7536   -905.56905   0.36359047 
463000 138.475891740488 55.2728487321521 -921.688616883652 -1292.76914335835 371.0805264747 0.36589350313341
464000 139.314426088275 -123.537773177056 -901.075516347081 -1274.40310376021 373.327587413127 0.355848782105156
  464000    139.31443   -123.53777   -1274.4031   -1274.4031            0    373.32759   -901.07552   0.35584878 
465000 136.774625658508 51.9491521527625 -912.946613676405 -1279.46817537074 366.521561694334 0.361581021252833
466000 144.270068309057 55.7766364237742 -916.876639817993 -1303.4841007253 386.607460907311 0.368169227043829
  466000    144.27007    55.776636   -1303.4841   -1303.4841            0    386.60746   -916.87664   0.36816923 
467000 143.078097220424 41.2931443265755 -903.759913513095 -1287.17319199953 383.413278486435 0.363040783040751
468000 133.813538674513 52.6944632864267 -960.075737876327 -1318.66233195177 358.586594075441 0.372872896052763
  468000    133.81354    52.694463   -1318.6623   -1318.6623            0    358.58659   -960.07574    0.3728729 
469000 143.233825734719 120.807520272086 -928.906309117914 -1312.73690081566 383.830591697749 0.37360997826357
470000 143.056685978694 131.615202342755 -917.55719066159 -1300.91309241079 383.355901749202 0.370670893303644
  470000    143.05669     131.6152   -1300.9131   -1300.9131            0     383.3559   -917.55719   0.37067089 
471000 145.890704899951 -59.0986488283543 -904.650671747251 -1295.60103069851 390.950358951256 0.361618879957032
472000 140.908925344708 -72.9058553351234 -905.680261492226 -1283.28070547341 377.600443981182 0.35937153602334
  472000    140.90893   -72.905855   -1283.2807   -1283.2807            0    377.60044   -905.68026   0.35937154 
473000 140.862232912409 -6.73126420140844 -918.130237143641 -1295.60555716178 377.475320018143 0.364361817519956
474000 135.839568738872 22.7157061020347 -918.966550190932 -1282.98239475529 364.01584456436 0.362987803458808
  474000    135.83957    22.715706   -1282.9824   -1282.9824            0    364.01584   -918.96655    0.3629878 
475000 135.403973362418 -12.447819074373 -961.601021322084 -1324.44957994524 362.848558623158 0.371550476708835
476000 139.612202604059 -66.7160927314367 -871.760673506367 -1245.88622701208 374.125553505708 0.351286043346372
  476000     139.6122   -66.716093   -1245.8862   -1245.8862            0    374.12555   -871.76067   0.35128604 
477000 139.564401278464 30.4470632355936 -875.811406668721 -1249.80886465654 373.997457987817 0.355274375741826
478000 138.03256677535 20.5430130561948 -928.221045977729 -1298.11357315959 369.892527181863 0.365493511177389
  478000    138.03257    20.543013   -1298.1136   -1298.1136            0    369.89253   -928.22105   0.36549351 
479000 140.688417727487 151.172721088489 -885.510763751635 -1262.52030283478 377.009539083141 0.361278762570683
480000 141.471792702419 -81.1171840425241 -921.9949374183 -1301.10372420782 379.108786789519 0.362552977486352
  480000    141.47179   -81.117184   -1301.1037   -1301.1037            0    379.10879   -921.99494   0.36255298 
481000 135.555508974067 190.606665985242 -921.059980629948 -1284.31461654095 363.254635911005 0.36902954019081
482000 138.14306881971 47.086563047185 -942.405603514813 -1312.59424835501 370.188644840195 0.370000102126023
  482000    138.14307    47.086563   -1312.5942   -1312.5942            0    370.18864    -942.4056    0.3700001 
483000 137.671794240516 -32.3296021695456 -870.990575962305 -1239.91632358073 368.925747618422 0.350041494686733
484000 137.449861392446 78.4409620779361 -927.313166999789 -1295.64419046032 368.331023460529 0.367178332811435
  484000    137.44986    78.440962   -1295.6442   -1295.6442            0    368.33102   -927.31317   0.36717833 
485000 143.59373829512 -27.5855610622181 -889.884029416099 -1274.67909616232 384.795066746219 0.35730272996372
486000 139.876446034871 99.6098728048286 -886.819978837348 -1261.65363821037 374.833659373024 0.359691578056783
  486000    139.87645    99.609873   -1261.6536   -1261.6536            0    374.83366   -886.81998   0.35969158 
487000 141.206359778049 -80.6081594464365 -918.259141533705 -1296.65663491265 378.397493378941 0.362159905380502
488000 144.014605636531 17.4779190517531 -914.367008817521 -1300.28989407903 385.922885261513 0.365631606162056
  488000    144.01461    17.477919   -1300.2899   -1300.2899            0    385.92289   -914.36701   0.36563161 
489000 139.442180101208 -27.3869226433516 -877.431880921623 -1251.10181692542 373.669936003793 0.351468436040071
490000 137.58091357166 13.1096714691468 -930.289991582154 -1298.97220188862 368.682210306465 0.365354164494208
  490000    137.58091    13.109671   -1298.9722   -1298.9722            0    368.68221   -930.28999   0.36535416 
491000 135.490504099381 38.5158786534049 -924.396159813298 -1287.4765990261 363.080439212802 0.364103245878835
492000 136.977918333713 21.1083446306012 -911.232571641202 -1278.29890652309 367.066334881893 0.361132684443159
  492000    136.97792    21.108345   -1278.2989   -1278.2989            0    367.06633   -911.23257   0.36113268 
493000 133.872732370353 5.58179509299744 -913.189180111501 -1271.93439838889 358.745218277386 0.358208915699486
494000 142.907755263979 -111.066169922492 -917.859362243868 -1300.81616717318 382.956804929315 0.362857343410845
  494000    142.90776   -111.06617   -1300.8162   -1300.8162            0     382.9568   -917.85936   0.36285734 
495000 139.54009362913 -17.4090529806057 -944.588497408673 -1318.52081701609 373.932319607419 0.370758865335087
496000 131.901187487005 50.2753895210424 -939.62744799001 -1293.08942234612 353.461974356111 0.36519564018191
  496000    131.90119     50.27539   -1293.0894   -1293.0894            0    353.46197   -939.62745   0.36519564 
497000 143.200314835902 34.1583593800039 -889.190596877542 -1272.93138780333 383.740790925793 0.360202731245292
498000 140.66138018234 2.94909639672779 -932.386642261355 -1309.32372753061 376.937085269256 0.366264254084845
  498000    140.66138    2.9490964   -1309.3237   -1309.3237            0    376.93709   -932.38664   0.36626425 
499000 139.521516042347 16.3534837454836 -917.062010431111 -1290.94454678314 373.882536352029 0.363145251268568
500000 136.454536002127 -41.370209662818 -957.556391969485 -1323.2201939721 365.66380200262 0.371556303778482
  500000    136.45454    -41.37021   -1323.2202   -1323.2202            0     365.6638   -957.55639    0.3715563 
501000 137.120387589299 -34.3348292362206 -949.173834608495 -1316.62195122658 367.448116618083 0.368851237777734
502000 141.796907062266 -65.1947391622278 -893.369444759432 -1273.34945618091 379.980011421475 0.35727545421995
  502000    141.79691   -65.194739   -1273.3495   -1273.3495            0    379.98001   -893.36944   0.35727545 
503000 145.337075070348 21.5980877488396 -910.450630116949 -1299.91740050951 389.46677039256 0.366193353467897
504000 140.661662976299 -11.1317735021801 -895.227590575011 -1272.16543366088 376.937843085868 0.357899757454584
  504000    140.66166   -11.131774   -1272.1654   -1272.1654            0    376.93784   -895.22759   0.35789976 
505000 141.931095415395 76.9075046661507 -916.172400768291 -1296.51200319222 380.339602423924 0.366337969395816
506000 139.566080276282 86.3453090135912 -892.398547691029 -1266.40050497029 374.001957279256 0.361763834249118
  506000    139.56608    86.345309   -1266.4005   -1266.4005            0    374.00196   -892.39855   0.36176383 
507000 143.22532913626 62.3400337959378 -912.592047137901 -1296.39987009093 383.807822953026 0.368193640660719
508000 139.483502600538 37.9690654234489 -929.732226518087 -1303.51289641652 373.780669898436 0.366523206427778
  508000     139.4835    37.969065   -1303.5129   -1303.5129            0    373.78067   -929.73223   0.36652321 
509000 139.687527736826 62.0918083823851 -931.971053014107 -1306.29845891139 374.327405897287 0.369939972704974
510000 143.506713041681 -28.5027449608727 -897.156365347213 -1281.71822632414 384.561860976922 0.361352354154877
  510000    143.50671   -28.502745   -1281.7182   -1281.7182            0    384.56186   -897.15637   0.36135235 
511000 135.809501877349 25.6044247502287 -900.759843231228 -1264.69511617649 363.935272945265 0.358345736341444
512000 139.26647148394 -13.053838342148 -863.190224865076 -1236.38930601188 373.199081146803 0.349696550658802
  512000    139.26647   -13.053838   -1236.3893   -1236.3893            0    373.19908   -863.19022   0.34969655 
513000 145.486660395522 13.3907582785375 -915.618397766864 -1305.48601917053 389.86762140367 0.365975374806435
514000 140.483425891297 -2.18696502159411 -867.826334539286 -1244.28654711122 376.460212571932 0.353419729460382
  514000    140.48343    -2.186965   -1244.2865   -1244.2865            0    376.46021   -867.82633   0.35341973 
515000 145.377035198472 10.7573619355961 -873.533517802021 -1263.10737127739 389.573853475368 0.356111438502015
516000 142.578267294812 4.02432191111585 -919.47671191768 -1301.55057204318 382.073860125501 0.366797259331023
  516000    142.57827    4.0243219   -1301.5506   -1301.5506            0    382.07386   -919.47671   0.36679726 
517000 135.895776224117 -26.0167806407663 -931.050970068686 -1295.21743654242 364.166466473738 0.363356766541131
518000 136.7513403174 18.2530598349715 -927.867290781821 -1294.32645362442 366.459162842599 0.364815667550251
  518000    136.75134     18.25306   -1294.3265   -1294.3265            0    366.45916   -927.86729   0.36481567 
519000 139.495715347542 75.1226993314045 -899.106578957126 -1272.91997594279 373.813396985664 0.36176298474072
520000 143.17985683175 42.9785740077407 -930.549818726001 -1314.23578735128 383.685968625275 0.369280517823194
  520000    143.17986    42.978574   -1314.2358   -1314.2358            0    383.68597   -930.54982   0.36928052 
521000 143.453499317549 17.9044769991148 -931.006027851886 -1315.42528944549 384.419261593603 0.371751912637412
522000 139.641965227495 69.8089641153197 -902.315599262635 -1276.52090910596 374.205309843328 0.362710832035714
  522000    139.64197    69.808964   -1276.5209   -1276.5209            0    374.20531    -902.3156   0.36271083 
523000 143.623638481651 81.8699560931493 -929.609279348081 -1314.48447106638 384.875191718302 0.371535941719267
524000 143.408586760408 -27.6621127312828 -915.644536124543 -1299.94344337242 384.298907247879 0.36474572966139
  524000    143.40859   -27.662113   -1299.9434   -1299.9434            0    384.29891   -915.64454   0.36474573 
525000 139.015485866019 -28.3242049785891 -936.175326988783 -1308.70182986896 372.52650288018 0.365844794750049
526000 140.717633735225 80.654976309591 -917.507586338197 -1294.59541696651 377.08783062831 0.36792288084309
  526000    140.71763    80.654976   -1294.5954   -1294.5954            0    377.08783   -917.50759   0.36792288 
527000 144.942152937728 -35.7177671738933 -882.341291035944 -1270.74976954067 388.40847850473 0.356924733100208
528000 143.700423870255 33.7256998626507 -928.001613251839 -1313.08257047972 385.080957227883 0.369787809882636
  528000    143.70042      33.7257   -1313.0826   -1313.0826            0    385.08096   -928.00161   0.36978781 
529000 139.286150784829 87.1496230901183 -929.065627224574 -1302.3174439432 373.251816718626 0.369333334639772
530000 137.564978519621 -32.4593302007244 -923.503859252009 -1292.1433676309 368.639508378889 0.363081661989613
  530000    137.56498    -32.45933   -1292.1434   -1292.1434            0    368.63951   -923.50386   0.36308166 
531000 133.667042901014 -100.710687776933 -922.420166080188 -1280.61418836517 358.194022284978 0.357038819611166
532000 131.280572133181 -55.3171343440229 -937.304490924949 -1289.10337238207 351.798881457117 0.361684536178972
  532000    131.28057   -55.317134   -1289.1034   -1289.1034            0    351.79888   -937.30449   0.36168454 
533000 137.032964213528 5.47135201156473 -952.402606203205 -1319.61645018437 367.213843981167 0.371122228551624
534000 140.686103240497 -55.1015708689957 -889.175438337298 -1266.17877517801 377.003336840715 0.356145739623791
  534000     140.6861   -55.101571   -1266.1788   -1266.1788            0    377.00334   -889.17544   0.35614574 
535000 141.854132734747 41.4422431471557 -894.317146594264 -1274.45050841056 380.1333618163 0.361020173460284
536000 137.812402881038 54.6518188758637 -924.059736932451 -1293.36228030713 369.30254337468 0.366047507532315
  536000     137.8124    54.651819   -1293.3623   -1293.3623            0    369.30254   -924.05974   0.36604751 
537000 140.098456784945 113.436193667315 -938.344417985662 -1313.77301027434 375.428592288675 0.372239952389968
538000 143.191918516549 27.8770170554523 -906.861225256564 -1290.57951616039 383.718290903826 0.364897824017561
  538000    143.19192    27.877017   -1290.5795   -1290.5795            0    383.71829   -906.86123   0.36489782 
539000 141.103932812879 75.2580570062817 -963.325344248989 -1341.4483591488 378.123014899816 0.378775571199322
540000 141.232822200776 -55.697487283626 -892.656256607137 -1271.12466261667 378.468406009536 0.355567543910353
  540000    141.23282   -55.697487   -1271.1247   -1271.1247            0    378.46841   -892.65626   0.35556754 
541000 138.143314307747 89.7056247303741 -930.685739152507 -1300.87504183884 370.189302686329 0.368869687354188
542000 143.918738316402 56.0196891506746 -881.378371714069 -1267.04435669368 385.66598497961 0.357857723532558
  542000    143.91874    56.019689   -1267.0444   -1267.0444            0    385.66598   -881.37837   0.35785772 
543000 138.156134084799 1.22628678868389 -880.856885738735 -1251.08054219999 370.223656461256 0.355744798282988
544000 138.086826083325 -40.5552924077045 -920.648288899197 -1290.68621736583 370.037928466637 0.362151796912892
  544000    138.08683   -40.555292   -1290.6862   -1290.6862            0    370.03793   -920.64829    0.3621518 
545000 138.018643305068 37.4389879333978 -890.112200420867 -1259.96741620782 369.85521578695 0.357501508433468
546000 143.599903864676 -39.32450408161 -915.863750244518 -1300.67533916487 384.811588920356 0.365594560243081
  546000     143.5999   -39.324504   -1300.6753   -1300.6753            0    384.81159   -915.86375   0.36559456 
547000 138.827785012873 -25.170961645766 -947.453907926086 -1319.47741977635 372.023511850265 0.368386327821083
548000 142.623453453538 -10.0768983194797 -911.247868274857 -1293.44281592945 382.194947654593 0.364010193421568
  548000    142.62345   -10.076898   -1293.4428   -1293.4428            0    382.19495   -911.24787   0.36401019 
549000 141.950552042296 105.059209046242 -909.908576355189 -1290.30031764071 380.391741285521 0.366526726039848
550000 138.533481359882 -68.0238878928712 -944.200103387998 -1315.43495554362 371.234852155623 0.366790170387063
  550000    138.53348   -68.023888    -1315.435    -1315.435            0    371.23485    -944.2001   0.36679017 
551000 148.662190095348 90.6027343648732 -879.075781866529 -1277.45302337834 398.377241511809 0.362722107310438
552000 143.52249067256 54.6862663469823 -916.257655417179 -1300.8617964726 384.604141055421 0.36825463757737
  552000    143.52249    54.686266   -1300.8618   -1300.8618            0    384.60414   -916.25766   0.36825464 
553000 144.291495424255 -18.8098748432344 -871.14762789755 -1257.81250807899 386.664880181443 0.356169483982095
554000 137.987497113063 13.1129380283219 -939.930148083525 -1309.70189991742 369.771751833898 0.368789582222889
  554000     137.9875    13.112938   -1309.7019   -1309.7019            0    369.77175   -939.93015   0.36878958 
555000 151.21854130905 64.2438899097084 -877.213385449892 -1282.44100461453 405.227619164639 0.362244694323231
556000 138.86274892596 18.5544021774455 -907.597574664814 -1279.71478099946 372.117206334647 0.361649825774711
  556000    138.86275    18.554402   -1279.7148   -1279.7148            0    372.11721   -907.59757   0.36164983 
557000 142.129983140485 -67.1764122255943 -900.697336166821 -1281.56990762101 380.872571454187 0.359376870190592
558000 143.093039776449 -39.0826358840912 -915.772299390889 -1299.22562016546 383.453320774569 0.364108114551448
  558000    143.09304   -39.082636   -1299.2256   -1299.2256            0    383.45332    -915.7723   0.36410811 
559000 135.3134272798 8.11972065856283 -898.283566303725 -1260.8894842218 362.60591791808 0.35681704726266
560000 134.583114243393 70.9090667650195 -928.707665643515 -1289.35652849132 360.648862847806 0.36389356475174
  560000    134.58311    70.909067   -1289.3565   -1289.3565            0    360.64886   -928.70767   0.36389356 
561000 138.372600293297 -20.976994964193 -891.651465787099 -1262.4551971885 370.803731401404 0.355189024804636
562000 137.330965756519 36.0043728669979 -933.429780430773 -1301.44219352078 368.01241309001 0.365672287318765
  562000    137.33097    36.004373   -1301.4422   -1301.4422            0    368.01241   -933.42978   0.36567229 
563000 135.88106261413 20.5645197930184 -927.47519374474 -1291.60223144808 364.127037703344 0.365373361521422
564000 138.309912857274 73.992124963541 -909.443964206773 -1280.07970906214 370.635744855369 0.363640892744606
  564000    138.30991    73.992125   -1280.0797   -1280.0797            0    370.63574   -909.44396   0.36364089 
565000 143.792381572329 -49.2698665513792 -922.0927081532 -1307.42008887091 385.327380717706 0.364526368509561
566000 135.945641944982 39.5352605658441 -935.418951403759 -1299.71904545497 364.30009405121 0.367129252967573
  566000    135.94564    39.535261    -1299.719    -1299.719            0    364.30009   -935.41895   0.36712925 
567000 138.911890281115 33.4352840536108 -896.220894888056 -1268.46978768244 372.248892794385 0.358805432690604
568000 142.837007123288 106.359324707015 -908.518965460616 -1291.28618318479 382.767217724172 0.366707899153479
  568000    142.83701    106.35932   -1291.2862   -1291.2862            0    382.76722   -908.51897    0.3667079 
569000 142.290441085141 14.9999216320632 -901.2351635185 -1282.53772186666 381.302558348164 0.362139303069179
570000 140.836205582462 111.632127748011 -909.546047982795 -1286.95162130945 377.405573326657 0.365692678087488
  570000    140.83621    111.63213   -1286.9516   -1286.9516            0    377.40557   -909.54605   0.36569268 
571000 137.07401078221 -54.147554307493 -921.082998381195 -1288.40683683234 367.323838451145 0.361924439066542
572000 131.347470842883 -42.1988917981009 -914.816046066169 -1266.79419922253 351.978153156362 0.355998587267587
  572000    131.34747   -42.198892   -1266.7942   -1266.7942            0    351.97815   -914.81605   0.35599859 
573000 139.335572169303 -13.5878937237144 -915.074966092445 -1288.45921967888 373.384253586438 0.360487099543012
574000 141.708186386035 40.8625964359733 -881.859826157553 -1261.6020885035 379.742262345943 0.358283328309037
  574000    141.70819    40.862596   -1261.6021   -1261.6021            0    379.74226   -881.85983   0.35828333 
575000 137.672657546427 31.4662859723543 -935.704070029762 -1304.63213109067 368.928061060913 0.366949005467597
576000 137.619348369984 107.098905917898 -930.335380509069 -1299.1205863985 368.785205889433 0.369064317466248
  576000    137.61935    107.09891   -1299.1206   -1299.1206            0    368.78521   -930.33538   0.36906432 
577000 139.802714437122 3.26530948319183 -901.610851296017 -1276.24692855011 374.636077254097 0.360093917006059
578000 136.960707560274 -176.966720450259 -922.54314631578 -1289.56336065793 367.020214342146 0.35747411237692
  578000    136.96071   -176.96672   -1289.5634   -1289.5634            0    367.02021   -922.54315   0.35747411 
579000 142.884295285989 41.1627929189519 -931.455163150878 -1314.34910124558 382.893938094704 0.369986755682479
580000 135.459897137891 61.273117631934 -942.816884463914 -1305.81530472569 362.998420261772 0.37032271914614
  580000     135.4599    61.273118   -1305.8153   -1305.8153            0    362.99842   -942.81688   0.37032272 
581000 136.777591485334 77.2606794816651 -915.185594888984 -1281.71510425252 366.529509363535 0.364334501957061
582000 139.604847585809 67.5744663959307 -888.639133630155 -1262.74497753869 374.105843908535 0.35917449157491
  582000    139.60485    67.574466    -1262.745    -1262.745            0    374.10584   -888.63913   0.35917449 
583000 146.823659133213 46.3148323264355 -923.663260742512 -1317.11370215364 393.450441411129 0.370882196738744
584000 142.256033490003 -22.8052433593932 -909.991243386987 -1291.20159804281 381.210354655824 0.364468724237494
  584000    142.25603   -22.805243   -1291.2016   -1291.2016            0    381.21035   -909.99124   0.36446872 
585000 133.811771598724 -25.0576791516031 -922.393258800222 -1280.97511755744 358.581858757214 0.360337755887763
586000 141.129238204254 -36.0131832348168 -930.445331259887 -1308.63615823758 378.190826977688 0.36824518933997
  586000    141.12924   -36.013183   -1308.6362   -1308.6362            0    378.19083   -930.44533   0.36824519 
587000 145.963000562364 -16.1617492859201 -871.61353927063 -1262.75763239563 391.144093125 0.356398644748185
588000 137.486853508008 14.3076429022243 -901.282660394691 -1269.71281341161 368.430153016915 0.358972992820785
  588000    137.48685    14.307643   -1269.7128   -1269.7128            0    368.43015   -901.28266   0.35897299 
589000 141.314813303574 2.96023155887502 -927.465839387554 -1306.15396091009 378.688121522541 0.367236133515603
590000 144.199267084349 129.092005688959 -919.226474206433 -1305.6442056568 386.417731450369 0.371170006132752
  590000    144.19927    129.09201   -1305.6442   -1305.6442            0    386.41773   -919.22647   0.37117001 
591000 133.555996031584 -99.1885247127158 -926.955265041405 -1284.85170967403 357.896444632625 0.359279727896793
592000 138.555683511056 -31.8100864813736 -919.728709170517 -1291.02305750156 371.294348331044 0.362564386235281
  592000    138.55568   -31.810086   -1291.0231   -1291.0231            0    371.29435   -919.72871   0.36256439 
593000 145.180888312443 2.34233282174541 -883.556849425175 -1272.60507862892 389.048229203742 0.358684521815398
594000 134.971322436559 44.4839350756389 -930.573616940155 -1292.26278000839 361.689163068236 0.366990537353199
  594000    134.97132    44.483935   -1292.2628   -1292.2628            0    361.68916   -930.57362   0.36699054 
595000 145.507280395837 44.6732224904692 -902.53836104875 -1292.46123886187 389.922877813119 0.365353030388846
596000 145.586702033209 73.1036306850818 -876.116700799408 -1266.25240860509 390.135707805684 0.360222791531953
  596000     145.5867    73.103631   -1266.2524   -1266.2524            0    390.13571    -876.1167   0.36022279 
597000 137.887786923752 -54.6053713825777 -906.548189226981 -1276.05274285707 369.504553630085 0.358065667589763
598000 137.956050838473 29.967652486859 -913.862126379707 -1283.54961011478 369.687483735071 0.36288499715076
  598000    137.95605    29.967652   -1283.5496   -1283.5496            0    369.68748   -913.86213     0.362885 
599000 142.886224950834 -50.1966443374346 -884.156390286938 -1267.0554993976 382.899109110666 0.355814681373582
600000 134.751746331063 -99.8822666223604 -896.366926871497 -1257.46768125859 361.100754387096 0.352470651599915
  600000    134.75175   -99.882267   -1257.4677   -1257.4677            0    361.10075   -896.36693   0.35247065 
601000 140.173933167848 31.5378646518773 -923.845043866457 -1299.475893859 375.630849992539 0.366780725065691
602000 134.826680596188 95.9103793981236 -945.335031080892 -1306.63659043269 361.301559351801 0.368942548255348
  602000    134.82668    95.910379   -1306.6366   -1306.6366            0    361.30156   -945.33503   0.36894255 
603000 135.028964711434 10.4054491084092 -939.709596202325 -1301.55322605492 361.843629852591 0.366323674831556
604000 128.572453194687 -23.780239792624 -925.261924373615 -1269.80372888527 344.541804511653 0.35730492592755
  604000    128.57245    -23.78024   -1269.8037   -1269.8037            0     344.5418   -925.26192   0.35730493 
605000 140.881448020916 6.9366284180617 -947.847259793098 -1325.37407146435 377.52681167125 0.371182658271627
606000 135.279790361797 -36.6582661406313 -937.863100478596 -1300.37887992503 362.515779446431 0.365787974023263
  606000    135.27979   -36.658266   -1300.3789   -1300.3789            0    362.51578    -937.8631   0.36578797 
607000 138.498331237421 -19.5156678088834 -902.994898120259 -1274.13555679726 371.140658676998 0.359289124246454
608000 142.399650005698 41.966800099303 -913.606477233944 -1295.20168799421 381.595210760267 0.36716793233354
  608000    142.39965      41.9668   -1295.2017   -1295.2017            0    381.59521   -913.60648   0.36716793 
609000 142.774680519954 72.5553461466682 -935.443976129587 -1318.04417424848 382.600198118896 0.371625182411812
610000 140.282520352099 14.5675656652106 -912.620895416733 -1288.54273172461 375.921836307876 0.364652823037334
  610000    140.28252    14.567566   -1288.5427   -1288.5427            0    375.92184    -912.6209   0.36465282 
611000 140.815637828697 20.2743231024389 -916.971054826477 -1294.32151175129 377.35045692481 0.366069977031042
612000 143.475447124266 -38.9570523757123 -903.827671401051 -1288.30574759096 384.478076189913 0.360357192474656
  612000    143.47545   -38.957052   -1288.3057   -1288.3057            0    384.47808   -903.82767   0.36035719 
613000 145.014714042779 82.0710703185915 -874.632582957988 -1263.2355069559 388.602923997917 0.357447848136931
614000 135.784497291576 -35.2085373150608 -946.373326478169 -1310.24159342884 363.868266950674 0.367582632088794
  614000     135.7845   -35.208537   -1310.2416   -1310.2416            0    363.86827   -946.37333   0.36758263 
615000 147.055079048163 -30.2947283020513 -902.302908316966 -1296.37349683671 394.070588519747 0.361792031462346
616000 137.998887862877 -6.40846798262311 -924.798146943287 -1294.6004231189 369.802276175609 0.363619863263683
  616000    137.99889    -6.408468   -1294.6004   -1294.6004            0    369.80228   -924.79815   0.36361986 
617000 140.66990303876 -23.5914210230221 -925.472873849252 -1302.43279822796 376.959924378704 0.365831542184059
618000 141.325552955291 40.9412455348859 -911.989144676714 -1290.70604576199 378.716901085273 0.364373721151371
  618000    141.32555    40.941246    -1290.706    -1290.706            0     378.7169   -911.98914   0.36437372 
619000 140.18133384777 144.192578864551 -887.539902172784 -1263.19058412428 375.650681951499 0.361791642364781
620000 135.375498120467 55.5755569233089 -912.393645874934 -1275.16589801873 362.772252143797 0.360254902393349
  620000     135.3755    55.575557   -1275.1659   -1275.1659            0    362.77225   -912.39365    0.3602549 
621000 151.852333353482 -3.60993845638938 -884.412829454434 -1291.33885173147 406.926022277032 0.362264143108753
622000 136.320272715386 32.6266000143317 -953.283816658233 -1318.58782685519 365.304010196958 0.37209079364709
  622000    136.32027      32.6266   -1318.5878   -1318.5878            0    365.30401   -953.28382   0.37209079 
623000 136.5127498841 60.2150754704953 -951.58485226384 -1317.40465281393 365.819800550088 0.371876083648347
624000 145.642499281262 62.3300999194648 -923.288608289596 -1313.57383867226 390.285230382668 0.369690647317964
  624000     145.6425      62.3301   -1313.5738   -1313.5738            0    390.28523   -923.28861   0.36969065 
625000 142.454306970756 34.6385761346783 -916.008608139266 -1297.75028580518 381.741677665909 0.368391393127624
626000 146.898484729162 27.8586848320084 -885.53300627828 -1279.18396144808 393.650955169802 0.361062677761521
  626000    146.89848    27.858685    -1279.184    -1279.184            0    393.65096   -885.53301   0.36106268 
627000 138.288437984732 -13.8540193143626 -901.498853327273 -1272.07705093085 370.578197603577 0.358848190363882
628000 138.128775592967 22.5029026038808 -915.437704607811 -1285.58804719887 370.150342591058 0.36293804121523
  628000    138.12878    22.502903    -1285.588    -1285.588            0    370.15034    -915.4377   0.36293804 
629000 138.488540243083 49.6519282538023 -918.078543762069 -1289.19296503927 371.114421277203 0.365217582888358
630000 137.462924385337 -37.0717796322782 -907.375854594717 -1275.74188358739 368.366028992673 0.358996659181513
  630000    137.46292    -37.07178   -1275.7419   -1275.7419            0    368.36603   -907.37585   0.35899666 
631000 138.592836687995 -78.2720315005171 -918.299315528787 -1289.69322502015 371.393909491368 0.361235869434243
632000 143.656047796464 -10.7786023243845 -882.195305308487 -1267.15734583096 384.962040522468 0.35694185558419
  632000    143.65605   -10.778602   -1267.1573   -1267.1573            0    384.96204   -882.19531   0.35694186 
633000 138.810155841404 53.8730650638355 -890.056682685791 -1262.03295279493 371.976270109137 0.358427424479325
634000 137.75403917157 -2.15844687519434 -889.10202446204 -1258.24816778929 369.146143327247 0.355240325266072
  634000    137.75404   -2.1584469   -1258.2482   -1258.2482            0    369.14614   -889.10202   0.35524033 
635000 145.14190263863 -1.28026022553928 -906.648971294115 -1295.59272870727 388.943757413152 0.363917234497714
636000 145.825699170937 -33.5506531798359 -888.355645927808 -1279.13180589148 390.776159963669 0.358838774512808
  636000     145.8257   -33.550653   -1279.1318   -1279.1318            0    390.77616   -888.35565   0.35883877 
637000 141.453038156763 31.2128175371837 -921.677758547941 -1300.73628787684 379.058529328901 0.367518956572477
638000 135.43061567705 30.7626623212704 -923.573500359988 -1286.49345367875 362.919953318766 0.36454293424501
  638000    135.43062    30.762662   -1286.4935   -1286.4935            0    362.91995    -923.5735   0.36454293 
639000 135.418407150042 88.9113333969689 -936.690614570464 -1299.57785211053 362.887237540067 0.369628554946854
640000 146.240454847076 91.6351850639782 -899.952620829486 -1291.84022158422 391.887600754737 0.364487517905758
  640000    146.24045    91.635185   -1291.8402   -1291.8402            0     391.8876   -899.95262   0.36448752 
641000 136.579055226276 25.963984660547 -947.868014305854 -1313.8654964796 365.99748217375 0.371343202269244
642000 138.914360999406 126.069867402366 -939.817743664668 -1312.07325736203 372.255513697365 0.37168111619739
  642000    138.91436    126.06987   -1312.0733   -1312.0733            0    372.25551   -939.81774   0.37168112 
643000 136.398123015887 104.578078586771 -925.066402620287 -1290.5790320226 365.512629402315 0.366597878080023
644000 143.589500923892 54.031466619018 -916.657941915046 -1301.4416535732 384.783711658152 0.366521057635307
  644000     143.5895    54.031467   -1301.4417   -1301.4417            0    384.78371   -916.65794   0.36652106 
645000 147.11280388352 57.9806757293197 -894.969932398516 -1289.19520894392 394.225276545408 0.3623093149054
646000 145.358211114302 76.8306953734961 -883.123654270521 -1272.64706393956 389.52340966904 0.361947483454443
  646000    145.35821    76.830695   -1272.6471   -1272.6471            0    389.52341   -883.12365   0.36194748 
647000 138.474302391821 -80.5716722711887 -918.610165409921 -1289.68643283034 371.076267420416 0.359374357753474
648000 140.032560237563 38.5004268468544 -881.077370003403 -1256.32937613554 375.252006132138 0.356496143115624
  648000    140.03256    38.500427   -1256.3294   -1256.3294            0    375.25201   -881.07737   0.35649614 
649000 137.78815790088 -0.371795948584187 -914.99895832686 -1284.23653125876 369.237572931895 0.360993090773262
650000 136.64132410451 -38.7513505145605 -902.509634568091 -1268.67398165838 366.164347090293 0.356219155495268
  650000    136.64132   -38.751351    -1268.674    -1268.674            0    366.16435   -902.50963   0.35621916 
651000 135.056021385344 -16.0196714570596 -907.293520434457 -1269.2096553612 361.916134926745 0.357030963158266
652000 143.637079449843 49.8682182117158 -894.149692517683 -1279.06090264677 384.91121012909 0.361437424283085
  652000    143.63708    49.868218   -1279.0609   -1279.0609            0    384.91121   -894.14969   0.36143742 
653000 150.893305174663 93.7955343148262 -875.783495844764 -1280.13956405234 404.356068207576 0.362155289170642
654000 140.619718271906 -92.3297829549484 -911.596034348554 -1288.42147618686 376.825441838307 0.361047004178458
  654000    140.61972   -92.329783   -1288.4215   -1288.4215            0    376.82544   -911.59603     0.361047 
655000 140.14229024006 91.2778486355511 -908.187350369428 -1283.73340528208 375.546054912652 0.365730197731698
[...]
 3090000     133.9674    112.86685   -1277.0363   -1277.0363            0    358.99891   -918.03736   0.36286533 
3091000 142.405707820351 -54.1583133829639 -898.46406514709 -1280.07550932548 381.611444178391 0.359018542637391
3092000 138.421210622661 25.9014161316674 -871.525662360945 -1242.45965720666 370.933994845718 0.352464356694635
 3092000    138.42121    25.901416   -1242.4597   -1242.4597            0    370.93399   -871.52566   0.35246436 
3093000 135.197109092694 10.745627130679 -935.102928649821 -1297.39714311131 362.29421446149 0.365178985823161
3094000 136.77621200037 40.7383563957587 -952.459257712183 -1318.98507040332 366.525812691139 0.372673879952414
 3094000    136.77621    40.738356   -1318.9851   -1318.9851            0    366.52581   -952.45926   0.37267388 
3095000 140.85139912589 134.824539183599 -914.762267200793 -1292.20855539863 377.446288197842 0.369762755474913
3096000 140.685454404563 -11.324096350313 -896.991878194868 -1273.99347631863 377.001598123767 0.36037729681857
 3096000    140.68545   -11.324096   -1273.9935   -1273.9935            0     377.0016   -896.99188    0.3603773 
3097000 136.698612383316 -10.9229966487347 -913.075709177253 -1279.39357443156 366.317865254306 0.360090190022367
3098000 140.473419268895 38.1820274325591 -883.889683613783 -1260.323080957 376.433397343213 0.356878544448345
 3098000    140.47342    38.182027   -1260.3231   -1260.3231            0     376.4334   -883.88968   0.35687854 
3099000 133.880761403198 0.0295306439236433 -925.922992022779 -1284.68972608676 358.766734063982 0.361260104107585
3100000 143.033982134593 17.8675399215647 -919.726234022192 -1303.02129518524 383.295061163046 0.367792256251702
 3100000    143.03398     17.86754   -1303.0213   -1303.0213            0    383.29506   -919.72623   0.36779226 
3101000 138.144921579544 11.8549506799331 -912.02149947844 -1282.21510924853 370.19360977009 0.361222881085047
3102000 144.443964925993 -45.7049432516732 -879.390681463793 -1266.4641415234 387.073460059611 0.354719417287411
 3102000    144.44396   -45.704943   -1266.4641   -1266.4641            0    387.07346   -879.39068   0.35471942 
3103000 140.464874888295 36.204874989662 -915.140026904596 -1291.55052745898 376.41050055438 0.364165871622377
3104000 143.663455649085 -40.9889020404263 -887.523177937937 -1272.50506964039 384.981891702454 0.357312945220727
 3104000    143.66346   -40.988902   -1272.5051   -1272.5051            0    384.98189   -887.52318   0.35731295 
3105000 135.077471843713 32.6597739969816 -910.278034153408 -1272.25165090811 361.973616754697 0.360855344590364
3106000 141.208587398194 -3.42422720278544 -875.650773072562 -1254.05423591265 378.403462840092 0.354218347272657
 3106000    141.20859   -3.4242272   -1254.0542   -1254.0542            0    378.40346   -875.65077   0.35421835 
3107000 141.642049082736 -6.68057886902875 -916.395280135718 -1295.96031115988 379.565031024164 0.362410406684629
3108000 135.93813835274 -40.3500999833106 -900.88668094435 -1265.16666725749 364.279986313144 0.356940023600189
 3108000    135.93814     -40.3501   -1265.1667   -1265.1667            0    364.27999   -900.88668   0.35694002 
3109000 142.5286053835 -50.4461170731511 -938.904490992332 -1320.84526969865 381.940778706319 0.368765192969163
3110000 143.158437787713 -8.27853937497543 -908.13788329725 -1291.76645427707 383.628570979822 0.363300569216725
 3110000    143.15844   -8.2785394   -1291.7665   -1291.7665            0    383.62857   -908.13788   0.36330057 
3111000 137.850344774088 -84.0254700193713 -928.234847487697 -1297.63906558331 369.40421809561 0.363837261630484
3112000 137.310823464046 -24.0738793238696 -892.89183335783 -1260.85027017514 367.958436817308 0.356852194825135
 3112000    137.31082   -24.073879   -1260.8503   -1260.8503            0    367.95844   -892.89183   0.35685219 
3113000 141.841271913453 70.5464033289807 -929.987770575717 -1310.08666862886 380.098898053138 0.370170074405379
3114000 147.760904550941 54.0908299432635 -885.791148789566 -1281.75317195457 395.962023165 0.362243562629974
 3114000     147.7609     54.09083   -1281.7532   -1281.7532            0    395.96202   -885.79115   0.36224356 
3115000 138.203864730269 33.6487311085041 -933.022744653736 -1303.37430722794 370.351562574208 0.367026714353189
3116000 140.753244194266 -0.539175918639886 -931.533904020833 -1308.7171617139 377.18325769307 0.36838391072809
 3116000    140.75324  -0.53917592   -1308.7172   -1308.7172            0    377.18326    -931.5339   0.36838391 
3117000 142.59830064344 -79.5368160549389 -896.294581584485 -1278.42212604061 382.127544456127 0.358101477417239
3118000 133.760203455352 -30.4198635198413 -916.99018168208 -1275.43385079811 358.443669116032 0.359695007663437
 3118000     133.7602   -30.419864   -1275.4339   -1275.4339            0    358.44367   -916.99018   0.35969501 
3119000 137.913273691644 11.7146868863705 -900.397171989199 -1269.97002374056 369.572851751361 0.359305256185767
3120000 142.529315882843 -85.2332434308855 -912.643564625188 -1294.58624729087 381.94268266568 0.362400564211897
 3120000    142.52932   -85.233243   -1294.5862   -1294.5862            0    381.94268   -912.64356   0.36240056 
3121000 144.057473201299 -52.2656024926336 -888.351741375632 -1274.38950091817 386.037759542538 0.358566281314295
3122000 139.509204213756 14.3497468643078 -878.18532559395 -1252.03486934504 373.849543751092 0.354273705126566
 3122000     139.5092    14.349747   -1252.0349   -1252.0349            0    373.84954   -878.18533   0.35427371 
3123000 138.192069136486 31.5432651088652 -904.892146200742 -1275.21209955333 370.319953352587 0.36162835144667
3124000 138.713365378742 -9.50450160868912 -922.634292111553 -1294.35118814921 371.716896037657 0.365659036588409
 3124000    138.71337   -9.5045016   -1294.3512   -1294.3512            0     371.7169   -922.63429   0.36565904 
3125000 140.639500185034 -13.619012819832 -914.461977557369 -1291.34042994246 376.878452385095 0.363692784250129
3126000 139.116416785259 20.1998155575871 -909.057392427058 -1281.85436475993 372.796972332867 0.361537066158133
 3126000    139.11642    20.199816   -1281.8544   -1281.8544            0    372.79697   -909.05739   0.36153707 
3127000 140.635974589855 40.8251467150092 -927.835401790039 -1304.70440646768 376.869004677638 0.368222500384124
3128000 140.653202260876 -90.4354862620155 -909.93499696036 -1286.85016745901 376.915170498647 0.358468800144711
 3128000     140.6532   -90.435486   -1286.8502   -1286.8502            0    376.91517     -909.935    0.3584688 
3129000 136.849384640793 -34.3368743781469 -915.81042481065 -1282.53232175581 366.721896945159 0.358691942633767
3130000 140.127243978535 35.51473412809 -943.135608981042 -1318.64134370093 375.505734719886 0.372092220895416
 3130000    140.12724    35.514734   -1318.6413   -1318.6413            0    375.50573   -943.13561   0.37209222 
3131000 139.118788776923 23.8267643429208 -954.713030579964 -1327.5163592533 372.803328673341 0.37380832345936
3132000 138.632264395926 100.854270932754 -914.403793687345 -1285.90335950945 371.499565822104 0.365262671480055
 3132000    138.63226    100.85427   -1285.9034   -1285.9034            0    371.49957   -914.40379   0.36526267 
3133000 147.623875232286 -69.7946134900601 -865.96012699275 -1261.55494608295 395.594819090199 0.353517101086573
3134000 132.241790950036 -80.1401274498348 -921.653742663991 -1276.02844854898 354.374705884986 0.357419680166682
 3134000    132.24179   -80.140127   -1276.0284   -1276.0284            0    354.37471   -921.65374   0.35741968 
3135000 145.847821171495 48.7046679829109 -859.770532317121 -1250.60597367274 390.835441355617 0.35497383292603
3136000 138.537426194021 -34.5892398668563 -924.335861826298 -1295.58128514424 371.245423317944 0.362216784896289
 3136000    138.53743    -34.58924   -1295.5813   -1295.5813            0    371.24542   -924.33586   0.36221678 
3137000 139.906863512562 19.1757136870671 -911.883027631234 -1286.79819818641 374.915170555178 0.363108734256137
3138000 149.85297913095 67.2819219520579 -886.599443072414 -1288.16769940058 401.568256328163 0.36559403585297
 3138000    149.85298    67.281922   -1288.1677   -1288.1677            0    401.56826   -886.59944   0.36559404 
3139000 138.051408092343 13.4494108665583 -918.673417437706 -1288.61643460552 369.943017167818 0.363456328607838
3140000 139.807544133583 67.9744620001348 -922.985986633001 -1297.63500625766 374.649019624662 0.366992485230285
 3140000    139.80754    67.974462    -1297.635    -1297.635            0    374.64902   -922.98599   0.36699249 
3141000 141.21509254432 231.36173262656 -912.569245179964 -1290.99014017391 378.420894993944 0.372407584517463
3142000 141.834118469271 -56.5804987402225 -897.829409927942 -1277.90913855166 380.079728623719 0.359235503359709
 3142000    141.83412   -56.580499   -1277.9091   -1277.9091            0    380.07973   -897.82941    0.3592355 
3143000 141.328758291952 -42.2626975967277 -906.540567304842 -1285.26605788538 378.725490580534 0.36133790853014
3144000 136.705218729446 8.85210486614088 -941.831321560025 -1308.16689015871 366.335568598687 0.368600203132074
 3144000    136.70522    8.8521049   -1308.1669   -1308.1669            0    366.33557   -941.83132    0.3686002 
3145000 142.449499198032 -31.3231919285452 -861.801349000355 -1243.53014304579 381.728794045437 0.350658300614163
3146000 136.807310295718 -61.8258182113183 -856.605364456144 -1223.21451274935 366.609148293207 0.343131756921624
 3146000    136.80731   -61.825818   -1223.2145   -1223.2145            0    366.60915   -856.60536   0.34313176 
3147000 135.847496016872 -77.722496397943 -946.113701714729 -1310.15078938832 364.037087673589 0.367117691908263
3148000 142.272782102837 -10.5488975887998 -905.890014595273 -1287.14525131678 381.255236721503 0.360313195767782
 3148000    142.27278   -10.548898   -1287.1453   -1287.1453            0    381.25524   -905.89001    0.3603132 
3149000 138.94166218207 46.8739221937835 -912.448884317338 -1284.77755831076 372.32867399342 0.362847338605753
3150000 144.307026328278 99.3647371249404 -893.943194501153 -1280.64969359524 386.706499094085 0.36288716907327
 3150000    144.30703    99.364737   -1280.6497   -1280.6497            0     386.7065   -893.94319   0.36288717 
3151000 138.679213275024 35.7218759347271 -918.969933290737 -1290.59531028874 371.625376998001 0.365344881296809
3152000 135.250012094147 -13.3659217046401 -940.877911313906 -1303.31389250016 362.435981186256 0.366459725937319
 3152000    135.25001   -13.365922   -1303.3139   -1303.3139            0    362.43598   -940.87791   0.36645973 
3153000 142.924259360486 132.65728035921 -918.645886343624 -1301.64691809642 383.001031752798 0.371376968317546
3154000 136.30790261755 52.6588018576086 -911.071659262261 -1276.34252071138 365.270861449116 0.362009344632982
 3154000     136.3079    52.658802   -1276.3425   -1276.3425            0    365.27086   -911.07166   0.36200934 
3155000 141.213039617407 71.4326860048796 -903.663481254994 -1282.07887492166 378.41539366667 0.363560938305171
3156000 145.688146012714 82.9824432471409 -899.877045247744 -1290.28459737845 390.40755213071 0.367144884742754
 3156000    145.68815    82.982443   -1290.2846   -1290.2846            0    390.40755   -899.87705   0.36714488 
3157000 140.116971322664 0.798554501176447 -888.54757737325 -1264.0257839617 375.47820658845 0.356131654290718
3158000 136.440212894443 -48.6875460736936 -915.115347660689 -1280.74076734078 365.625419680086 0.358851229243075
 3158000    136.44021   -48.687546   -1280.7408   -1280.7408            0    365.62542   -915.11535   0.35885123 
3159000 146.458912696129 -44.731060249234 -880.7002715011 -1273.17328429125 392.473012790147 0.3581151317188
3160000 138.772837157307 34.1336296629887 -936.837304757626 -1308.71357018892 371.876265431298 0.37074853329809
 3160000    138.77284     34.13363   -1308.7136   -1308.7136            0    371.87627    -936.8373   0.37074853 
3161000 136.938710859119 -56.242093236067 -934.758572854919 -1301.71984157597 366.961268721053 0.364587762609208
3162000 138.433329894124 16.2125219082353 -879.625004643809 -1250.59147608584 370.966471442031 0.354579480645633
 3162000    138.43333    16.212522   -1250.5915   -1250.5915            0    370.96647     -879.625   0.35457948 
3163000 138.40049872905 8.92329574311442 -895.111436275249 -1265.98992846062 370.878492185371 0.356730555096792
3164000 144.711951929072 -8.03046148989493 -889.907959988952 -1277.69955774705 387.791597758101 0.360130820962057
 3164000    144.71195   -8.0304615   -1277.6996   -1277.6996            0     387.7916   -889.90796   0.36013082 
3165000 138.173272153164 -29.7135435519018 -896.159647173857 -1266.42922934357 370.269582169708 0.357004738929225
3166000 143.068008840853 -101.803520582191 -922.506823278932 -1305.89306744802 383.386244169086 0.364771586890495
 3166000    143.06801   -101.80352   -1305.8931   -1305.8931            0    383.38624   -922.50682   0.36477159 
3167000 144.193017129926 43.4492999497901 -898.81156839368 -1285.21255153971 386.400983146034 0.363575691439891
3168000 141.778556140407 6.89033656268133 -945.801407775859 -1325.73224334687 379.930835571015 0.370794334896524
 3168000    141.77856    6.8903366   -1325.7322   -1325.7322            0    379.93084   -945.80141   0.37079433 
3169000 135.295447704526 -5.65137325715549 -945.386262331082 -1307.94399951406 362.557737182975 0.366065140225831
3170000 138.487535710396 43.2035596516467 -899.165242862317 -1270.27697224483 371.11172938251 0.360811015220615
 3170000    138.48754     43.20356    -1270.277    -1270.277            0    371.11173   -899.16524   0.36081102 
3171000 138.93553073864 -15.9919465545544 -943.046402672411 -1315.35864594112 372.312243268713 0.36891049577485
3172000 143.829731901675 151.443470101323 -911.967341766836 -1297.39481196368 385.427470196847 0.369211509452041
 3172000    143.82973    151.44347   -1297.3948   -1297.3948            0    385.42747   -911.96734   0.36921151 
3173000 142.357424643824 41.1802918257144 -923.097384906053 -1304.57944232737 381.482057421314 0.367614192555778
3174000 137.936848017717 -46.3630890706018 -919.377915982113 -1289.01394099216 369.636025010043 0.360511896539089
 3174000    137.93685   -46.363089   -1289.0139   -1289.0139            0    369.63603   -919.37792    0.3605119 
3175000 136.236429536913 32.6956982875441 -913.510571485187 -1278.58990307262 365.079331587433 0.362325384410893
3176000 140.712975367186 -77.8554260094778 -942.787979024746 -1319.86332639952 377.075347374779 0.367246910365537
 3176000    140.71298   -77.855426   -1319.8633   -1319.8633            0    377.07535   -942.78798   0.36724691 
3177000 138.634898559964 57.1858801744672 -922.140097221292 -1293.64672193983 371.506624718535 0.366222726239404
3178000 139.988999966687 -22.3465455754705 -977.228343388074 -1352.36361896122 375.135275573146 0.376868277574355
 3178000      139.989   -22.346546   -1352.3636   -1352.3636            0    375.13528   -977.22834   0.37686828 
3179000 136.986365235308 145.369568717277 -949.766341935919 -1316.85531238745 367.088970451533 0.37323116727507
3180000 141.743907911817 55.7667262112957 -918.80249324272 -1298.64048028433 379.837987041608 0.367135018132922
 3180000    141.74391    55.766726   -1298.6405   -1298.6405            0    379.83799   -918.80249   0.36713502 
3181000 135.314431114192 -27.2251006091799 -925.974261650307 -1288.58286959183 362.608607941519 0.363771157241024
3182000 141.251062662211 -17.5709979489183 -921.547881662853 -1300.06516751672 378.517285853872 0.364201107824133
 3182000    141.25106   -17.570998   -1300.0652   -1300.0652            0    378.51729   -921.54788   0.36420111 
3183000 139.480004355719 19.5904977996489 -906.238579961223 -1280.00987544428 373.771295483056 0.361961637983393
3184000 133.735679431811 67.5770497573359 -944.074872682891 -1302.45282359013 358.377950907235 0.370701557211659
 3184000    133.73568     67.57705   -1302.4528   -1302.4528            0    358.37795   -944.07487   0.37070156 
3185000 135.087265277484 86.8964482538875 -930.211740038442 -1292.21160073 361.99986069156 0.367933701691588
3186000 136.85847912481 -74.7051902375414 -916.914471120225 -1283.66073899288 366.746267872652 0.357925763043623
 3186000    136.85848    -74.70519   -1283.6607   -1283.6607            0    366.74627   -916.91447   0.35792576 
3187000 138.621069351704 -54.2450658737466 -912.591100209428 -1284.06066613154 371.469565922109 0.359817884710857
3188000 142.840357534043 113.09421149952 -906.579086232239 -1289.35528221372 382.776195981478 0.367596971664738
 3188000    142.84036    113.09421   -1289.3553   -1289.3553            0     382.7762   -906.57909   0.36759697 
3189000 134.701238732509 -17.7749909456715 -898.130254315007 -1259.09566105403 360.965406739019 0.356948263078136
3190000 137.169489897012 92.9261643452413 -913.262883533751 -1280.84258197426 367.579698440508 0.364721928991475
 3190000    137.16949    92.926164   -1280.8426   -1280.8426            0     367.5797   -913.26288   0.36472193 
3191000 143.015230473867 -21.4447140724275 -877.772808107506 -1261.01761954082 383.244811433312 0.355868419142882
3192000 140.176202529489 106.096487948121 -896.915955102926 -1272.55288641332 375.636931310391 0.363186826080837
 3192000     140.1762    106.09649   -1272.5529   -1272.5529            0    375.63693   -896.91596   0.36318683 
3193000 145.174110995179 -34.3700629104815 -882.909284656688 -1271.93935235645 389.030067699765 0.356479919220907
3194000 138.622587561773 -27.7285982052518 -911.574138013342 -1283.04777235621 371.473634342863 0.360651930853846
 3194000    138.62259   -27.728598   -1283.0478   -1283.0478            0    371.47363   -911.57414   0.36065193 
3195000 144.540393884544 -25.3588786701719 -905.661177403983 -1292.99304279507 387.331865391084 0.362676325159343
3196000 132.924395763107 65.4478464883556 -932.665043111373 -1288.86895803935 356.20391492798 0.36695338301277
 3196000     132.9244    65.447846    -1288.869    -1288.869            0    356.20391   -932.66504   0.36695338 
3197000 145.272132790175 -60.2590544270855 -912.799599176328 -1302.09234060822 389.292741431893 0.363879976960662
3198000 137.863591886942 -33.890294990987 -888.245230708716 -1257.68494773162 369.439717022901 0.353943193949374
 3198000    137.86359   -33.890295   -1257.6849   -1257.6849            0    369.43972   -888.24523   0.35394319 
3199000 137.946995944956 46.0551391248253 -919.411266230193 -1289.07448513034 369.663218900151 0.364671874424814
3200000 133.11698391982 -18.146670218437 -882.222470659328 -1238.94247336033 356.720002701006 0.350904685431654
 3200000    133.11698    -18.14667   -1238.9425   -1238.9425            0       356.72   -882.22247   0.35090469 
Loop time of 609.76 on 36 procs for 3000000 steps with 900 atoms

Performance: 850.170 ns/day, 0.028 hours/ns, 4919.966 timesteps/s
99.6% CPU use with 36 MPI tasks x 1 OpenMP threads

MPI task timing breakdown:
Section |  min time  |  avg time  |  max time  |%varavg| %total
---------------------------------------------------------------
Pair    | 135.21     | 141.99     | 149.01     |  36.9 | 23.29
Bond    | 0.52264    | 0.59213    | 0.69734    |   5.3 |  0.10
Neigh   | 10.966     | 11.476     | 13.252     |  19.1 |  1.88
Comm    | 316.68     | 329.72     | 348.75     |  54.9 | 54.07
Output  | 0.21261    | 0.21363    | 0.22976    |   0.6 |  0.04
Modify  | 92.303     | 104.76     | 113.14     |  65.2 | 17.18
Other   |            | 21.01      |            |       |  3.44

Nlocal:    25 ave 30 max 20 min
Histogram: 1 3 0 5 5 8 6 1 5 2
Nghost:    1210.53 ave 1237 max 1194 min
Histogram: 3 4 9 6 2 6 3 1 1 1
Neighs:    3089 ave 3603 max 2456 min
Histogram: 3 1 0 5 5 5 8 2 3 4

Total # of neighbors = 111204
Ave neighs/atom = 123.56
Ave special neighs/atom = 0
Neighbor list builds = 53376
Dangerous builds = 0
unfix integrator
write_restart production.restart
undump traj1
Total wall time: 0:10:09
