LAMMPS (12 Dec 2018)
OMP_NUM_THREADS environment is not set. Defaulting to 1 thread. (../comm.cpp:87)
  using 1 OpenMP thread(s) per MPI task
# Lammps script to read in mBuild topologies and perform energy minimization
# Initialization
units           real
boundary        p p p
atom_style      full

# Assume ff info is included in data file
pair_style     lj/cut/coul/cut ${rcut} # read in from job.sp.r_cut
pair_style     lj/cut/coul/cut 14.0 
bond_style  none
angle_style none
dihedral_style  none
read_restart equilibrated_npt.restart
  restoring atom style full from restart
  triclinic box = (-0.195107 -0.195107 -0.195107) to (40.1751 40.1751 40.1751) with tilt (0 0 0)
  3 by 4 by 3 MPI processor grid
  restoring pair style lj/cut/coul/cut from restart
  restoring bond style harmonic from restart
  restoring angle style harmonic from restart
  restoring dihedral style opls from restart
  900 atoms
  0 = max # of 1-2 neighbors
  0 = max # of 1-3 neighbors
  0 = max # of 1-4 neighbors
  1 = max # of special neighbors

pair_modify shift no  #TODO: Look to make sure this shift is okay

neighbor        2.5 bin #skin cutoff

timestep 2.0
thermo 2000
thermo_style custom step temp press pe epair emol ke etotal density

variable tsample equal ${T} #kelvin, modified by job.sp.temperature
variable tsample equal 140.0 
variable psample equal ${P}/101.325 #kPa to atm modified by job.sp.pressure
variable psample equal 1318.0/101.325 
# ________________________________________________________________________________________

# Production
variable startstep equal step
variable t equal temp
variable pressure equal press
variable e equal etotal
variable p equal pe
variable k equal ke
variable d equal density
variable filename string "prlog.txt"
fix output_data all print 1000 "${startstep} ${t} ${pressure} $e $p $k $d" file ${filename} title "step temp press etotal pe ke density"
fix output_data all print 1000 "${startstep} ${t} ${pressure} $e $p $k $d" file prlog.txt title "step temp press etotal pe ke density"
dump traj1 all dcd 10000 prod.dcd
fix integrator all npt temp ${tsample} ${tsample} 100.0 iso ${psample} ${psample} 1000.0 pchain 10
fix integrator all npt temp 140 ${tsample} 100.0 iso ${psample} ${psample} 1000.0 pchain 10
fix integrator all npt temp 140 140 100.0 iso ${psample} ${psample} 1000.0 pchain 10
fix integrator all npt temp 140 140 100.0 iso 13.007648655317 ${psample} 1000.0 pchain 10
fix integrator all npt temp 140 140 100.0 iso 13.007648655317 13.007648655317 1000.0 pchain 10
fix zeromom all momentum 100 linear 1 1 1 rescale
run 3000000
Neighbor list info ...
  update every 1 steps, delay 10 steps, check yes
  max neighbors/atom: 2000, page size: 100000
  master list distance cutoff = 16.5
  ghost atom cutoff = 16.5
  binsize = 8.25, bins = 5 5 5
  1 neighbor lists, perpetual/occasional/extra = 1 0 0
  (1) pair lj/cut/coul/cut, perpetual
      attributes: half, newton on
      pair build: half/bin/newton/tri
      stencil: half/bin/3d/newton/tri
      bin: standard
Per MPI rank memory allocation (min/avg/max) = 5.742 | 5.758 | 5.994 Mbytes
Step Temp Press PotEng E_pair E_mol KinEng TotEng Density 
  200000    140.93049    67.632589   -1283.7355   -1283.7355            0    377.65824   -906.07722   0.36441313 
201000 136.646940189647 15.0517620498511 -902.748574840969 -1268.92797162549 366.179396784525 0.35923845109918
202000 144.579317804608 42.7709321308535 -951.787352520688 -1339.22352421786 387.436171697174 0.375765123001679
  202000    144.57932    42.770932   -1339.2235   -1339.2235            0    387.43617   -951.78735   0.37576512 
203000 135.612364819892 -62.1588860847801 -901.393906036049 -1264.80090129955 363.406995263501 0.352974073720502
204000 141.311199339602 -26.8384594001283 -929.559114300359 -1308.23755130933 378.678437008967 0.366571659434062
  204000     141.3112   -26.838459   -1308.2376   -1308.2376            0    378.67844   -929.55911   0.36657166 
205000 143.917448768702 6.2960607766232 -917.05595812914 -1302.71848744558 385.662529316436 0.366307782156036
206000 144.015226972385 33.4783435416643 -883.152489771455 -1269.07704005663 385.924550285172 0.357600015122619
  206000    144.01523    33.478344    -1269.077    -1269.077            0    385.92455   -883.15249   0.35760002 
207000 135.781712086491 12.0821833140292 -907.791103138597 -1271.65190644086 363.860803302264 0.359939882546009
208000 139.650227248436 -14.5196728200828 -905.176819714765 -1279.40426969413 374.227449979362 0.360610956240902
  208000    139.65023   -14.519673   -1279.4043   -1279.4043            0    374.22745   -905.17682   0.36061096 
209000 141.885554861931 12.6485614898359 -881.966669025002 -1262.18423423116 380.217565206162 0.357018527251017
210000 143.984738568256 -48.678103017975 -879.379611521399 -1265.22246055942 385.842849038022 0.355836625256249
  210000    143.98474   -48.678103   -1265.2225   -1265.2225            0    385.84285   -879.37961   0.35583663 
211000 142.859698676773 -18.0250189315929 -911.652920084634 -1294.4809454592 382.82802537457 0.364556832748224
212000 138.043279822596 -10.9685529870859 -902.17444041241 -1272.09567586372 369.921235451311 0.360797632554371
  212000    138.04328   -10.968553   -1272.0957   -1272.0957            0    369.92124   -902.17444   0.36079763 
213000 134.192682688441 -76.5658977518756 -942.79972470166 -1302.40232927921 359.602604577555 0.362616758093057
214000 140.117518745915 14.716532689904 -895.671223752718 -1271.15089729766 375.479673544939 0.359895389996699
  214000    140.11752    14.716533   -1271.1509   -1271.1509            0    375.47967   -895.67122   0.35989539 
215000 141.386007957131 -59.6777632314311 -920.750540915339 -1299.62944618509 378.878905269748 0.365313337416626
216000 136.483028647368 -80.6536550144961 -938.532882552646 -1304.27303767106 365.740155118416 0.364917335460432
  216000    136.48303   -80.653655    -1304.273    -1304.273            0    365.74016   -938.53288   0.36491734 
217000 143.661024064812 -80.0568054380919 -923.109420990349 -1308.08479665914 384.97537566879 0.364930239194268
218000 140.252447755897 -21.9957923887867 -906.282836373084 -1282.12408569437 375.841249321283 0.361019611172336
  218000    140.25245   -21.995792   -1282.1241   -1282.1241            0    375.84125   -906.28284   0.36101961 
219000 141.368863287829 -15.807310979822 -885.640563696634 -1264.47352556908 378.832961872448 0.354771018206649
220000 141.504833175394 -75.478733865335 -899.383841663072 -1278.58116860173 379.197326938655 0.357322193170019
  220000    141.50483   -75.478734   -1278.5812   -1278.5812            0    379.19733   -899.38384   0.35732219 
221000 135.755618248474 -43.5527807971276 -944.159872093798 -1307.95075047969 363.790878385895 0.365630848005943
222000 143.950360729672 -33.2397411813593 -888.998809440537 -1274.74953452629 385.750725085756 0.358162585107584
  222000    143.95036   -33.239741   -1274.7495   -1274.7495            0    385.75073   -888.99881   0.35816259 
223000 140.895585653728 -33.8727956456359 -898.166944763042 -1275.73164173087 377.564696967825 0.358342045297502
224000 137.294087420763 -45.4738021657876 -937.798821882472 -1305.71241031733 367.913588434859 0.36591091761791
  224000    137.29409   -45.473802   -1305.7124   -1305.7124            0    367.91359   -937.79882   0.36591092 
225000 144.510383177118 92.4155942771352 -878.681887769091 -1265.93333201992 387.251444250829 0.36176379709337
226000 140.330538092903 27.3770804091246 -913.899123513112 -1289.94963527715 376.050511764039 0.364298214295946
  226000    140.33054     27.37708   -1289.9496   -1289.9496            0    376.05051   -913.89912   0.36429821 
227000 145.141520928612 19.3736447554911 -909.954560697306 -1298.89729522371 388.942734526407 0.367148115311475
228000 144.127851073364 -2.92201343162665 -900.606766675813 -1286.8331211968 386.226354520984 0.361954489752239
  228000    144.12785   -2.9220134   -1286.8331   -1286.8331            0    386.22635   -900.60677   0.36195449 
229000 139.371959843789 -96.699403035578 -922.095743362407 -1295.57750675532 373.481763392915 0.362202691067907
230000 142.842400723096 -110.34568548252 -899.643457799673 -1282.42512901341 382.781671213738 0.359768154841518
  230000     142.8424   -110.34569   -1282.4251   -1282.4251            0    382.78167   -899.64346   0.35976815 
231000 136.925019050909 17.0482401662776 -934.867445991236 -1301.79202411341 366.924578122169 0.367619197266892
232000 140.42193179878 16.968470803773 -861.574078022847 -1237.8695019089 376.29542388605 0.35161668505822
  232000    140.42193    16.968471   -1237.8695   -1237.8695            0    376.29542   -861.57408   0.35161669 
233000 132.031847046508 -0.558964376018871 -926.907795208933 -1280.719904289 353.812109080069 0.359793349240879
234000 140.346528028582 16.8630387029552 -897.157216140447 -1273.2505769064 376.093360765952 0.35891610456565
  234000    140.34653    16.863039   -1273.2506   -1273.2506            0    376.09336   -897.15722    0.3589161 
235000 133.323541100734 49.330274148769 -923.171902162667 -1280.44542610464 357.273523941975 0.362164059981246
236000 137.72860428826 31.6731865100394 -872.030860148512 -1241.1088443921 369.077984243592 0.353772138932011
  236000     137.7286    31.673187   -1241.1088   -1241.1088            0    369.07798   -872.03086   0.35377214 
237000 143.551610285207 36.4770222951543 -887.018951975376 -1271.70112626139 384.682174286013 0.361481206259379
238000 137.41103838372 -8.88193712640671 -927.468904760847 -1295.69589233227 368.22698757142 0.364481883257996
  238000    137.41104   -8.8819371   -1295.6959   -1295.6959            0    368.22699    -927.4689   0.36448188 
239000 144.623250490607 115.029804308115 -934.043498519836 -1321.59739875477 387.553900234936 0.373659876578543
240000 140.107729682182 77.2665958438727 -901.995461403537 -1277.44890272222 375.45344131868 0.362082988103358
  240000    140.10773    77.266596   -1277.4489   -1277.4489            0    375.45344   -901.99546   0.36208299 
241000 137.961994738891 -73.5964237054985 -920.203658569177 -1289.9070704609 369.703411891723 0.362025452619246
242000 141.652269175644 71.3462246196437 -898.600757288337 -1278.19317558843 379.592418300094 0.362433218683096
  242000    141.65227    71.346225   -1278.1932   -1278.1932            0    379.59242   -898.60076   0.36243322 
243000 141.488267137989 3.06837086682968 -898.232132292715 -1277.38506642188 379.15293412916 0.360483248137144
244000 136.688021032914 -49.1760537595658 -914.958425114249 -1281.24790821601 366.28948310176 0.359905656762867
  244000    136.68802   -49.176054   -1281.2479   -1281.2479            0    366.28948   -914.95843   0.35990566 
245000 144.464303578844 -11.771063337632 -910.539856016253 -1297.66781854494 387.127962528688 0.36513031453626
246000 137.840121263992 21.9160538354749 -924.046884790932 -1293.42370645341 369.376821662477 0.364859534834773
  246000    137.84012    21.916054   -1293.4237   -1293.4237            0    369.37682   -924.04688   0.36485953 
247000 145.185325006636 34.0360668285649 -927.510687999758 -1316.57080642693 389.060118427174 0.370678794425515
248000 139.755660237277 77.1516807886043 -931.668463586172 -1306.17844743129 374.509983845116 0.369958167735583
  248000    139.75566    77.151681   -1306.1784   -1306.1784            0    374.50998   -931.66846   0.36995817 
249000 132.016117029354 -33.8487907401413 -927.404107406007 -1281.17406400037 353.769956594364 0.359268298719794
250000 137.558162068442 28.7514800433608 -921.769942165583 -1290.39118417146 368.621242005874 0.363931658663699
  250000    137.55816     28.75148   -1290.3912   -1290.3912            0    368.62124   -921.76994   0.36393166 
251000 138.275571482933 -85.3827818550919 -927.213857663618 -1297.75757628171 370.543718618093 0.362807703543799
252000 144.724375043344 -3.12252506105979 -909.044425247596 -1296.86931382424 387.824888576644 0.364469745687534
  252000    144.72438   -3.1225251   -1296.8693   -1296.8693            0    387.82489   -909.04443   0.36446975 
253000 139.141408103207 93.3581329477957 -921.932682411581 -1294.79662518461 372.863942773028 0.365839509796496
254000 136.670957265035 -40.4057364604757 -933.85903786321 -1300.10279436311 366.243756499904 0.365037551038138
  254000    136.67096   -40.405736   -1300.1028   -1300.1028            0    366.24376   -933.85904   0.36503755 
255000 146.071637263628 50.9896486548816 -941.527136535009 -1332.96234866847 391.435212133464 0.374218818772809
256000 142.169522922442 -34.2297104618473 -936.909107184712 -1317.88763529981 380.978528115097 0.366808650107269
  256000    142.16952    -34.22971   -1317.8876   -1317.8876            0    380.97853   -936.90911   0.36680865 
257000 138.230580159775 25.712065516097 -933.215243469931 -1303.6383966692 370.423153199272 0.367875796746973
258000 138.544052102328 -16.1546937624755 -929.201186959817 -1300.46436604385 371.263179084035 0.366007088330751
  258000    138.54405   -16.154694   -1300.4644   -1300.4644            0    371.26318   -929.20119   0.36600709 
259000 139.342761058094 -19.9198624522558 -889.711692872876 -1263.11521087136 373.403517998487 0.356033930442447
260000 139.309506699116 108.6001100603 -894.724150370994 -1268.03855505971 373.314404688713 0.36156559898391
  260000    139.30951    108.60011   -1268.0386   -1268.0386            0     373.3144   -894.72415    0.3615656 
261000 140.89300499985 -46.7414967331566 -914.274390942434 -1291.83217240758 377.557781465151 0.360385951158098
262000 134.292795545475 -60.8023727896512 -912.423846521147 -1272.29472835064 359.870881829488 0.356793108549379
  262000     134.2928   -60.802373   -1272.2947   -1272.2947            0    359.87088   -912.42385   0.35679311 
263000 142.651774577186 -7.69458624972233 -862.43482769451 -1244.70566883021 382.2708411357 0.351526372723875
264000 136.56543397648 74.8617276900228 -924.437984672301 -1290.39896532595 365.960980653654 0.36531861516527
  264000    136.56543    74.861728    -1290.399    -1290.399            0    365.96098   -924.43798   0.36531862 
265000 137.515367519507 -24.9855763805075 -932.627634546354 -1301.13419793525 368.506563388899 0.364675511709968
266000 146.116640335873 -35.1602699784154 -866.952667770129 -1258.50847680701 391.55580903688 0.354239662391282
  266000    146.11664    -35.16027   -1258.5085   -1258.5085            0    391.55581   -866.95267   0.35423966 
267000 139.088923037339 -40.742873155553 -916.512982617744 -1289.23627862815 372.723296010405 0.360749347032112
268000 145.614769377558 146.210483339566 -900.066932077232 -1290.27785329939 390.210921222163 0.368912534466097
  268000    145.61477    146.21048   -1290.2779   -1290.2779            0    390.21092   -900.06693   0.36891253 
269000 134.727076883266 32.9228098142071 -917.037794066069 -1278.07244054397 361.034646477904 0.36069034632151
270000 140.742672443384 17.5161678120483 -900.725181131583 -1277.88010919389 377.154928062304 0.361728767165826
  270000    140.74267    17.516168   -1277.8801   -1277.8801            0    377.15493   -900.72518   0.36172877 
271000 143.369879392669 62.4686342123376 -887.664002293164 -1271.85918354066 384.195181247498 0.360916607221715
272000 138.329615610247 -38.8457659425814 -909.261091819637 -1279.94963509251 370.688543272871 0.357841795916705
  272000    138.32962   -38.845766   -1279.9496   -1279.9496            0    370.68854   -909.26109    0.3578418 
273000 136.732687354053 -23.3939813694418 -925.314002329116 -1291.72317992611 366.409177596994 0.363011992463561
274000 143.002476105295 -37.0455941225729 -901.820258813068 -1285.03089174971 383.210632936645 0.361674306490739
  274000    143.00248   -37.045594   -1285.0309   -1285.0309            0    383.21063   -901.82026   0.36167431 
275000 139.314516768513 66.3175614301651 -914.18911511724 -1287.51694553057 373.327830413335 0.364274659164937
276000 151.371939655475 113.498797019339 -869.51761768661 -1275.15630579933 405.638688112716 0.362864181478938
  276000    151.37194     113.4988   -1275.1563   -1275.1563            0    405.63869   -869.51762   0.36286418 
277000 141.058250376058 -33.0065893383932 -937.100104509341 -1315.10070197972 378.000597470377 0.3676066891041
278000 146.407479247445 -14.4921722996519 -888.153097570706 -1280.48828166752 392.335184096819 0.358815051179464
  278000    146.40748   -14.492172   -1280.4883   -1280.4883            0    392.33518    -888.1531   0.35881505 
279000 137.221081508235 46.0616403892176 -939.846459756926 -1307.56441072655 367.717950969623 0.367631511090367
280000 143.970742176278 105.834065748213 -925.137826874995 -1310.94316910632 385.805342231322 0.371839737563567
  280000    143.97074    105.83407   -1310.9432   -1310.9432            0    385.80534   -925.13783   0.37183974 
281000 144.052551495097 -62.1373113927282 -868.58912068423 -1254.61369129326 386.024570609031 0.353625383766445
282000 145.019305021101 -117.058134187266 -921.106273863843 -1309.72150052782 388.615226663972 0.364132400791643
  282000    145.01931   -117.05813   -1309.7215   -1309.7215            0    388.61523   -921.10627    0.3641324 
283000 142.184498938084 48.1463192138997 -905.605970215995 -1286.62463028257 381.01866006658 0.363704913729366
284000 139.125446787592 43.3229224328081 -944.182818169273 -1317.00398863495 372.82117046568 0.37085812552074
  284000    139.12545    43.322922    -1317.004    -1317.004            0    372.82117   -944.18282   0.37085813 
285000 134.838819610792 109.912107783755 -915.800327291755 -1277.13441614652 361.334088854762 0.364332616695921
286000 148.479439099601 -43.9941991156707 -876.406901955405 -1274.29441680893 397.887514853523 0.356629723764403
  286000    148.47944   -43.994199   -1274.2944   -1274.2944            0    397.88751    -876.4069   0.35662972 
287000 137.054123944765 -57.4392186429773 -908.527410441007 -1275.79795717461 367.270546733602 0.357694101622016
288000 143.747150300742 86.3856840311169 -888.067901642187 -1273.27407393969 385.206172297507 0.360187997490834
  288000    143.74715    86.385684   -1273.2741   -1273.2741            0    385.20617    -888.0679     0.360188 
289000 136.703333391171 -68.9054060996208 -913.45557640323 -1279.78609277 366.330516366773 0.359660940200716
290000 141.35710504531 -31.5145034371228 -896.016439310667 -1274.81789205348 378.801452742812 0.356666554050598
  290000    141.35711   -31.514503   -1274.8179   -1274.8179            0    378.80145   -896.01644   0.35666655 
291000 142.310026036162 17.6834998142059 -909.947860069746 -1291.30290115584 381.355041086093 0.363290047745955
292000 141.440811669338 6.98794706491753 -872.400616807476 -1251.42638222828 379.025765420803 0.353969337831854
  292000    141.44081    6.9879471   -1251.4264   -1251.4264            0    379.02577   -872.40062   0.35396934 
293000 134.33479692847 6.29356375386314 -951.815469765776 -1311.79890472721 359.983434961435 0.369504568213184
294000 137.027732774037 -9.82754681253991 -943.948504595292 -1311.14832963572 367.199825040427 0.367293658054484
  294000    137.02773   -9.8275468   -1311.1483   -1311.1483            0    367.19983    -943.9485   0.36729366 
295000 137.03708917293 17.4908457229629 -898.750372766668 -1265.97527060051 367.224897833844 0.358674917416099
296000 140.536191075198 -23.8405772461566 -913.05643236 -1289.65804234036 376.601609980357 0.361636020349437
  296000    140.53619   -23.840577    -1289.658    -1289.658            0    376.60161   -913.05643   0.36163602 
297000 133.339889148335 -68.4717589277426 -961.714846184633 -1319.03217877831 357.31733259368 0.367576237111625
298000 136.435984416487 87.5344094184078 -938.223252884427 -1303.83734130817 365.614088423747 0.368153487195654
  298000    136.43598    87.534409   -1303.8373   -1303.8373            0    365.61409   -938.22325   0.36815349 
299000 135.458851403402 13.8838538080071 -927.362606802918 -1290.35822475954 362.995617956622 0.364771381777124
300000 138.598311046182 95.3891451020911 -944.373777725613 -1315.78235711867 371.408579393056 0.37213780900934
  300000    138.59831    95.389145   -1315.7824   -1315.7824            0    371.40858   -944.37378   0.37213781 
301000 138.514565035641 22.5793423465276 -897.581930031822 -1268.76609120095 371.184161169126 0.35816629878531
302000 135.369400333981 -94.620643880185 -923.449647685532 -1286.20555929676 362.755911611225 0.359973047937346
  302000     135.3694   -94.620644   -1286.2056   -1286.2056            0    362.75591   -923.44965   0.35997305 
303000 137.334419208119 55.8688707081943 -949.263079538122 -1317.28474700896 368.021667470839 0.372413203462285
304000 135.220608074447 16.8961677277935 -906.463891873901 -1268.82107769027 362.357185816366 0.359499541033463
  304000    135.22061    16.896168   -1268.8211   -1268.8211            0    362.35719   -906.46389   0.35949954 
305000 147.461356919527 -2.71474238369173 -883.567605956589 -1278.72691688502 395.159310928433 0.360099503253984
306000 137.933857619453 139.85918309519 -934.519927925696 -1304.14793942127 369.628011495575 0.371740445287053
  306000    137.93386    139.85918   -1304.1479   -1304.1479            0    369.62801   -934.51993   0.37174045 
307000 135.236843698311 -21.0405670534881 -916.567156357813 -1278.96784955857 362.400693200759 0.358573589441029
308000 137.668929929556 46.8538977650828 -941.739153456933 -1310.65722544312 368.918071986183 0.369491234295383
  308000    137.66893    46.853898   -1310.6572   -1310.6572            0    368.91807   -941.73915   0.36949123 
309000 140.347790952503 113.880859707184 -905.814237567783 -1281.91098265188 376.096745084101 0.36435293126035
310000 139.930361201091 46.2613014019361 -906.190268297282 -1281.16840674182 374.978138444539 0.363914730009054
  310000    139.93036    46.261301   -1281.1684   -1281.1684            0    374.97814   -906.19027   0.36391473 
311000 146.295930129127 -110.402672468622 -900.053356549194 -1292.08961709309 392.036260543896 0.361606575031868
312000 140.021363907625 -3.17864230630484 -932.937454280027 -1308.15945706678 375.222002786751 0.367235516556574
  312000    140.02136   -3.1786423   -1308.1595   -1308.1595            0      375.222   -932.93745   0.36723552 
313000 136.400868224472 -22.1792234555039 -944.342954752408 -1309.86294062258 365.519985870176 0.367558068034179
314000 140.04732540976 -35.380549531779 -932.279108141245 -1307.57068121752 375.291573076271 0.36569348000545
  314000    140.04733    -35.38055   -1307.5707   -1307.5707            0    375.29157   -932.27911   0.36569348 
315000 139.607543342223 -26.9304898862395 -879.412561076952 -1253.52562893398 374.113067857028 0.351965675058113
316000 137.972695309183 96.9316093565397 -914.230815781077 -1283.96290250715 369.732086726076 0.365409685332279
  316000     137.9727    96.931609   -1283.9629   -1283.9629            0    369.73209   -914.23082   0.36540969 
317000 149.383140843742 54.5092479848564 -901.539168220804 -1301.84837622811 400.309208007305 0.367662601674431
318000 139.20909589788 -61.0041836097174 -909.601319801486 -1282.64664882282 373.04532902133 0.35847071078202
  318000     139.2091   -61.004184   -1282.6466   -1282.6466            0    373.04533   -909.60132   0.35847071 
319000 138.623379579556 40.2280417676374 -914.403522929481 -1285.8792796806 371.47575675112 0.364046149271851
320000 133.943572367347 78.4521366370134 -922.565557274827 -1281.50060890912 358.935051634295 0.363500969434508
  320000    133.94357    78.452137   -1281.5006   -1281.5006            0    358.93505   -922.56556   0.36350097 
321000 140.523651228087 -19.5166220950386 -899.160254802592 -1275.72826114979 376.568006347195 0.359713812533159
322000 139.166921107466 -5.72639586636099 -905.20434379801 -1278.13665499917 372.932311201158 0.360804166895532
  322000    139.16692   -5.7263959   -1278.1367   -1278.1367            0    372.93231   -905.20434   0.36080417 
323000 150.346626926522 23.6401517435376 -889.897440695005 -1292.78854883204 402.891108137035 0.364056652296993
324000 139.378736971763 -73.2251914808793 -923.408931655559 -1296.9088560452 373.499924389642 0.363992177193414
  324000    139.37874   -73.225191   -1296.9089   -1296.9089            0    373.49992   -923.40893   0.36399218 
325000 144.310589037634 43.5510641115579 -885.98091694179 -1272.69696319998 386.716046258195 0.360887003369595
326000 133.355449015908 80.4179824896799 -902.764657757508 -1260.12368687885 357.359029121344 0.35836177117905
  326000    133.35545    80.417982   -1260.1237   -1260.1237            0    357.35903   -902.76466   0.35836177 
327000 139.309557647577 -62.6365057949562 -941.579871136974 -1314.89441235473 373.314541217761 0.366252507058879
328000 143.507978120165 -22.2446945667318 -895.513616063342 -1280.0788671321 384.565251068755 0.35872512343443
  328000    143.50798   -22.244695   -1280.0789   -1280.0789            0    384.56525   -895.51362   0.35872512 
329000 141.493678828282 -45.5905152540606 -891.814907518798 -1270.98234361547 379.167436096672 0.35620215790825
330000 143.981336064186 24.3579754762849 -915.382891474722 -1301.21662265847 385.833731183745 0.367594546885628
  330000    143.98134    24.357975   -1301.2166   -1301.2166            0    385.83373   -915.38289   0.36759455 
331000 134.206279344377 -20.323307585994 -943.635403518651 -1303.27444371095 359.639040192301 0.366561159387004
332000 139.606817811553 -0.337597160531802 -889.578258377155 -1263.68938199465 374.111123617495 0.357889830838986
  332000    139.60682  -0.33759716   -1263.6894   -1263.6894            0    374.11112   -889.57826   0.35788983 
333000 141.360328408754 37.5898323125754 -925.741064976386 -1304.5511555217 378.810090545311 0.369393836573429
334000 140.254146555869 36.7394821215496 -911.107950144073 -1286.95375182158 375.845801677509 0.365403411846876
  334000    140.25415    36.739482   -1286.9538   -1286.9538            0     375.8458   -911.10795   0.36540341 
335000 142.629261858179 85.2746886357783 -874.60856337488 -1256.81907609156 382.210512716676 0.35792152813026
336000 133.562300629479 36.579315518367 -949.69496913132 -1307.60830849903 357.913339367707 0.368851798881467
  336000     133.5623    36.579316   -1307.6083   -1307.6083            0    357.91334   -949.69497    0.3688518 
337000 140.379945105417 25.2362898671592 -887.625735213894 -1263.80864533251 376.182910118618 0.359028571903881
338000 144.647109256662 134.619581174185 -917.782740776749 -1305.40057649791 387.617835721159 0.370832018442363
  338000    144.64711    134.61958   -1305.4006   -1305.4006            0    387.61784   -917.78274   0.37083202 
339000 137.352194890593 -51.2087130188854 -924.352710184159 -1292.42201200873 368.069301824574 0.361833209366184
340000 144.484046161418 29.9074522051057 -883.547192231652 -1270.72805991115 387.180867679495 0.359340955500891
  340000    144.48405    29.907452   -1270.7281   -1270.7281            0    387.18087   -883.54719   0.35934096 
341000 137.539535038999 -28.5872287663238 -943.232026403094 -1311.8033526597 368.571326256602 0.369199105855353
342000 144.124702754671 139.548980880061 -937.53030036347 -1323.74821818299 386.217917819524 0.376462851859735
  342000     144.1247    139.54898   -1323.7482   -1323.7482            0    386.21792    -937.5303   0.37646285 
343000 133.50776367808 66.6344326237598 -949.148400710705 -1306.91559477916 357.767194068457 0.369221204760691
344000 139.028151824932 31.2477835622849 -886.313037424298 -1258.87348188552 372.560444461221 0.356924516536578
  344000    139.02815    31.247784   -1258.8735   -1258.8735            0    372.56044   -886.31304   0.35692452 
345000 147.494097561276 44.5743262302401 -905.347943488114 -1300.59499109349 395.247047605373 0.366060674267907
346000 145.018194740773 90.9975268967419 -921.379904750397 -1309.99215614262 388.612251392221 0.370452764191859
  346000    145.01819    90.997527   -1309.9922   -1309.9922            0    388.61225    -921.3799   0.37045276 
347000 137.131762310464 -7.4651970053181 -899.701215503108 -1267.17981351016 367.478598007049 0.356797596927393
348000 135.288211448138 73.0477662487559 -931.887797868917 -1294.42614370661 362.538345837691 0.368838668453411
  348000    135.28821    73.047766   -1294.4261   -1294.4261            0    362.53835    -931.8878   0.36883867 
349000 137.442646550793 -128.478451258215 -905.12238481325 -1273.43407431459 368.311689501343 0.354957155594633
350000 144.96424039805 60.5640934495041 -899.90811217513 -1288.37577951267 388.467667337543 0.364235570715459
  350000    144.96424    60.564093   -1288.3758   -1288.3758            0    388.46767   -899.90811   0.36423557 
351000 146.686619967002 118.520353947398 -894.594813983614 -1287.67802493097 393.083210947354 0.364254852270667
352000 144.179834534918 -10.7074770508115 -872.32118204784 -1258.68683915817 386.365657110329 0.353876120686108
  352000    144.17983   -10.707477   -1258.6868   -1258.6868            0    386.36566   -872.32118   0.35387612 
353000 129.822265627736 -17.0401369538525 -940.552359629689 -1288.44334680282 347.890987173135 0.362088800589086
354000 134.927813380934 16.1073425202818 -910.246984084643 -1271.81955383786 361.572569753221 0.359860478016602
  354000    134.92781    16.107343   -1271.8196   -1271.8196            0    361.57257   -910.24698   0.35986048 
355000 138.856959098945 -2.79319166191238 -892.937155728927 -1265.03884678485 372.101691055921 0.357436371525668
356000 141.499396069131 47.3222682824529 -887.612551813649 -1266.79530867639 379.182756862744 0.358263357860484
  356000     141.4994    47.322268   -1266.7953   -1266.7953            0    379.18276   -887.61255   0.35826336 
357000 137.230640909471 15.8370225933092 -910.204475597013 -1277.94804335522 367.743567758211 0.361001571724217
358000 137.947343051918 89.5395163326514 -944.246032214421 -1313.91018127384 369.66414905942 0.372143490769075
  358000    137.94734    89.539516   -1313.9102   -1313.9102            0    369.66415   -944.24603   0.37214349 
359000 136.357990175077 -5.35753217789422 -907.178472422914 -1272.58355591591 365.405083492991 0.359123456091582
360000 135.88831340355 -28.4065197120885 -900.031939670002 -1264.1784076635 364.146467993495 0.356955984343159
  360000    135.88831    -28.40652   -1264.1784   -1264.1784            0    364.14647   -900.03194   0.35695598 
361000 136.017112254926 1.36553545720546 -922.462490612509 -1286.95410710064 364.491616488134 0.362133044851414
362000 144.832321890407 77.7063061620175 -905.408404480309 -1293.52256342984 388.114158949528 0.367179359013519
  362000    144.83232    77.706306   -1293.5226   -1293.5226            0    388.11416    -905.4084   0.36717936 
363000 140.065615359132 -19.1550096471402 -926.401815150365 -1301.74240068618 375.340585535819 0.365916531327178
364000 138.949549293408 -44.1224924431664 -957.450999650606 -1329.80080911671 372.349809466107 0.369843606942557
  364000    138.94955   -44.122492   -1329.8008   -1329.8008            0    372.34981     -957.451   0.36984361 
365000 135.657790759656 -46.5442548385209 -914.370290716857 -1277.89901606226 363.528725345404 0.359785109349492
366000 140.745185557725 -13.3378580767548 -873.149671537683 -1250.31133411371 377.161662576024 0.353659391487741
  366000    140.74519   -13.337858   -1250.3113   -1250.3113            0    377.16166   -873.14967   0.35365939 
367000 140.575781838788 -24.3125082155004 -927.919410845946 -1304.62711410515 376.707703259207 0.36523325251019
368000 140.623216160762 75.8948095584176 -927.004915643358 -1303.83973094315 376.834815299793 0.367813166484216
  368000    140.62322     75.89481   -1303.8397   -1303.8397            0    376.83482   -927.00492   0.36781317 
369000 131.442707117803 31.2949113877463 -953.78720953433 -1306.02057193031 352.233362395981 0.368609086549023
370000 138.77259027366 133.358479657584 -900.401197879212 -1272.27680172449 371.87560384528 0.363769750311058
  370000    138.77259    133.35848   -1272.2768   -1272.2768            0     371.8756    -900.4012   0.36376975 
371000 138.823756566906 16.430175098066 -906.984782387571 -1278.99749901687 372.012716629294 0.362553521663169
372000 139.439997972992 53.3619214200699 -906.774695181241 -1280.4387836308 373.664088449556 0.363685926473962
  372000       139.44    53.361921   -1280.4388   -1280.4388            0    373.66409    -906.7747   0.36368593 
373000 128.139325648243 -24.3818147746456 -945.65966747048 -1289.04079920404 343.381131733563 0.363087106220671
374000 139.960422088859 65.4013412124258 -915.433027285261 -1290.49172134074 375.058694055478 0.366774735835158
  374000    139.96042    65.401341   -1290.4917   -1290.4917            0    375.05869   -915.43303   0.36677474 
375000 142.723016380763 -26.2705527096564 -881.400792747628 -1263.86254398072 382.461751233089 0.355927570885286
376000 132.63049238587 -4.07893633155897 -940.003491012546 -1295.41981888413 355.416327871585 0.364139308472887
  376000    132.63049   -4.0789363   -1295.4198   -1295.4198            0    355.41633   -940.00349   0.36413931 
377000 139.506665999982 -17.9615416128259 -898.915802299925 -1272.75854427714 373.842741977211 0.359602692039167
378000 145.088145901717 12.5270417447816 -912.092203028462 -1300.89190592076 388.799702892293 0.366523712343276
  378000    145.08815    12.527042   -1300.8919   -1300.8919            0     388.7997    -912.0922   0.36652371 
379000 132.364692527352 101.53559991847 -922.29871576461 -1277.00276693448 354.70405116987 0.364002720497987
380000 139.88568650822 25.7809383427256 -937.880973622882 -1312.73939513805 374.858421515172 0.370873058762122
  380000    139.88569    25.780938   -1312.7394   -1312.7394            0    374.85842   -937.88097   0.37087306 
381000 137.332722219032 -52.0107678259726 -930.031232315946 -1298.04835228328 368.01711996733 0.36280821091855
382000 140.395340205949 85.7756401650116 -914.15326758374 -1290.37743269584 376.224165112097 0.366309561182463
  382000    140.39534     85.77564   -1290.3774   -1290.3774            0    376.22417   -914.15327   0.36630956 
383000 141.15874209917 193.020556430447 -912.889288726565 -1291.15917871458 378.269889988013 0.370328361186454
384000 142.192998144765 58.9430978194012 -900.235653470043 -1281.27708927072 381.041435800682 0.362981957996741
  384000      142.193    58.943098   -1281.2771   -1281.2771            0    381.04144   -900.23565   0.36298196 
385000 137.956591368014 44.5421929097869 -911.190928340334 -1280.87986055849 369.688932218153 0.361614643888074
386000 139.710764691412 20.268491300548 -900.093292362094 -1274.48296744742 374.389675085327 0.361284279803654
  386000    139.71076    20.268491    -1274.483    -1274.483            0    374.38968   -900.09329   0.36128428 
387000 136.376825820367 46.8163163929945 -905.817815313279 -1271.27337359349 365.455558280211 0.359596715148493
388000 142.766419350422 -58.7463098295851 -904.984431440776 -1287.5624917052 382.578060264426 0.359727508633916
  388000    142.76642    -58.74631   -1287.5625   -1287.5625            0    382.57806   -904.98443   0.35972751 
389000 146.017692210051 79.9842677783725 -892.1934882402 -1283.48414121156 391.290652971356 0.361369275887215
390000 139.696919794334 -94.8658755020123 -905.869320572109 -1280.22189481893 374.352574246818 0.357245347646786
  390000    139.69692   -94.865876   -1280.2219   -1280.2219            0    374.35257   -905.86932   0.35724535 
391000 143.758111800384 36.5989260973391 -895.961148686893 -1281.19669504372 385.235546356823 0.361650354419549
392000 137.85333221594 25.6046626077812 -937.807874158387 -1307.22009784603 369.412223687642 0.369552522675418
  392000    137.85333    25.604663   -1307.2201   -1307.2201            0    369.41222   -937.80787   0.36955252 
393000 147.650538361368 -51.7886743015374 -908.638596488487 -1304.30486605178 395.666269563293 0.363764032588388
394000 144.046536461946 -9.29356633272006 -917.514347453383 -1303.52279928794 386.008451834561 0.366536317133023
  394000    144.04654   -9.2935663   -1303.5228   -1303.5228            0    386.00845   -917.51435   0.36653632 
395000 143.101652602398 152.044847427873 -921.982835824933 -1305.45923680464 383.476400979705 0.370747559004297
396000 142.866395646013 -50.8472263291726 -898.648739269649 -1281.49471083572 382.845971566072 0.358949866776645
  396000     142.8664   -50.847226   -1281.4947   -1281.4947            0    382.84597   -898.64874   0.35894987 
397000 141.626540053987 -56.6867809947244 -903.53704869223 -1283.06051942398 379.523470731747 0.359033557928469
398000 135.939698231445 -25.1634592627362 -929.933122372073 -1294.21728876742 364.284166395349 0.364673606466263
  398000     135.9397   -25.163459   -1294.2173   -1294.2173            0    364.28417   -929.93312   0.36467361 
399000 144.75385400637 126.795595995867 -901.987840231755 -1289.89172500754 387.903884775781 0.366772114162263
400000 146.160068068376 -10.8919074822128 -896.691532827224 -1288.36371725363 391.672184426402 0.362870903284279
  400000    146.16007   -10.891907   -1288.3637   -1288.3637            0    391.67218   -896.69153    0.3628709 
401000 141.575097491357 1.37274396568019 -922.460870399772 -1301.84648801511 379.385617615338 0.367607303527365
402000 142.692727564021 18.1763239252804 -898.502029174612 -1280.8826140045 382.380584829885 0.362923232249918
  402000    142.69273    18.176324   -1280.8826   -1280.8826            0    382.38058   -898.50203   0.36292323 
403000 136.669557789045 -23.6382522650256 -931.306646367778 -1297.54665262437 366.240006256591 0.365842692041676
404000 146.975220638302 104.597299422219 -879.638435843711 -1273.49502393059 393.856588086875 0.363092052014613
  404000    146.97522     104.5973    -1273.495    -1273.495            0    393.85659   -879.63844   0.36309205 
405000 137.520558878071 17.2548702225343 -889.796036961695 -1258.31651188454 368.520474922848 0.355018242514159
406000 142.580966699755 51.4338006390123 -898.843929470507 -1280.92502332164 382.081093851132 0.362448131851521
  406000    142.58097    51.433801    -1280.925    -1280.925            0    382.08109   -898.84393   0.36244813 
407000 132.644047726176 -44.7684879140557 -940.284028980151 -1295.73668175099 355.452652770843 0.363272504034858
408000 133.87715720548 -64.6567254426161 -919.987605702821 -1278.74468142433 358.757075721509 0.359299987891752
  408000    133.87716   -64.656725   -1278.7447   -1278.7447            0    358.75708   -919.98761   0.35929999 
409000 133.305231212494 -52.9493561674278 -910.719841646594 -1267.94429969788 357.224458051283 0.356575816642026
410000 133.853921635483 -21.0117942025978 -924.587858454772 -1283.28266869859 358.69481024382 0.360915988486374
  410000    133.85392   -21.011794   -1283.2827   -1283.2827            0    358.69481   -924.58786   0.36091599 
411000 146.175858257446 51.0357697495571 -894.187456329067 -1285.90195448676 391.714498157692 0.364798479996018
412000 139.705409085602 -27.8663348398765 -903.848036585059 -1278.22335999517 374.37532341011 0.360004361253207
  412000    139.70541   -27.866335   -1278.2234   -1278.2234            0    374.37532   -903.84804   0.36000436 
413000 141.292940054333 -9.88373610249236 -927.40738045557 -1306.03688717706 378.629506721494 0.366021937764341
414000 142.314752555463 -17.1480533085699 -895.589586498569 -1276.95729346642 381.367706967847 0.358516426050113
  414000    142.31475   -17.148053   -1276.9573   -1276.9573            0    381.36771   -895.58959   0.35851643 
415000 138.802370273893 83.1578488963805 -933.836888988232 -1305.79229573657 371.955406748341 0.369414925544783
416000 139.533349948284 41.6379936363087 -918.736385527772 -1292.65063376835 373.914248240576 0.365490839168431
  416000    139.53335    41.637994   -1292.6506   -1292.6506            0    373.91425   -918.73639   0.36549084 
417000 140.625451399652 -20.8039342283747 -905.647424677955 -1282.48822985522 376.840805177265 0.362233746861107
418000 142.199017476619 -62.0215618998904 -919.935689633463 -1300.99325572806 381.057566094595 0.364329229923429
  418000    142.19902   -62.021562   -1300.9933   -1300.9933            0    381.05757   -919.93569   0.36432923 
419000 136.793457077479 -27.197403491663 -917.498187142695 -1284.07021229878 366.572025156084 0.360622029113104
420000 133.090300885263 48.8129898324178 -924.777456540675 -1281.42595542692 356.648498886249 0.362036337574463
  420000     133.0903     48.81299    -1281.426    -1281.426            0     356.6485   -924.77746   0.36203634 
421000 143.592430481366 -41.3099392936492 -928.339888210074 -1313.13145034469 384.791562134621 0.366486982282673
422000 145.15838145579 -13.1213659834887 -904.958419003686 -1293.94633549804 388.987916494351 0.364163819109296
  422000    145.15838   -13.121366   -1293.9463   -1293.9463            0    388.98792   -904.95842   0.36416382 
423000 143.81624236303 64.8329121104985 -927.041263246158 -1312.43258487563 385.391321629471 0.370348447616294
424000 141.575782267075 53.3579126373243 -872.27717660325 -1251.66462924511 379.387452641859 0.353962918803492
  424000    141.57578    53.357913   -1251.6646   -1251.6646            0    379.38745   -872.27718   0.35396292 
425000 142.521522270444 -13.6729186190309 -915.190573263324 -1297.11237100993 381.921797746609 0.364042403519949
426000 139.699788144104 68.7946751853943 -914.227618415649 -1288.5878791177 374.360260702053 0.365539749356405
  426000    139.69979    68.794675   -1288.5879   -1288.5879            0    374.36026   -914.22762   0.36553975 
427000 137.364746005906 157.744068389017 -936.168030593575 -1304.27096624726 368.102935653681 0.371341597550509
428000 145.400454426842 -46.9228479188159 -909.658590632278 -1299.29520174354 389.636611111258 0.364231845500319
  428000    145.40045   -46.922848   -1299.2952   -1299.2952            0    389.63661   -909.65859   0.36423185 
429000 139.390570697687 19.9833162603523 -922.782897167931 -1296.31453296373 373.531635795799 0.365392380886362
430000 140.708751018236 -82.2219789366329 -904.11017671363 -1281.17420389677 377.064027183136 0.357566654259862
  430000    140.70875   -82.221979   -1281.1742   -1281.1742            0    377.06403   -904.11018   0.35756665 
431000 155.784902330948 119.223954336494 -876.604494662738 -1294.06881171596 417.464317053217 0.367721180902993
432000 151.831193862954 114.224537920585 -884.451123860747 -1291.32049762535 406.869373764603 0.36611676480649
  432000    151.83119    114.22454   -1291.3205   -1291.3205            0    406.86937   -884.45112   0.36611676 
433000 134.152380764509 -47.7027942201448 -861.163270483671 -1220.6578760517 359.494605568033 0.346345638771294
434000 135.548120329867 29.3970910846378 -926.835922175778 -1290.07075838053 363.234836204753 0.364732009663866
  434000    135.54812    29.397091   -1290.0708   -1290.0708            0    363.23484   -926.83592   0.36473201 
435000 136.912884798698 -24.5044052205122 -908.915850889754 -1275.80791227098 366.892061381225 0.359147186350555
436000 139.674941308835 104.64552352302 -899.550568557361 -1273.84424599646 374.293677439096 0.363798702044009
  436000    139.67494    104.64552   -1273.8442   -1273.8442            0    374.29368   -899.55057    0.3637987 
437000 139.250342881878 -16.0338199642538 -906.602197696854 -1279.75805825075 373.155860553896 0.361583061389717
438000 140.640112215723 94.4339272343142 -915.72593585299 -1292.60602832624 376.880092473253 0.366382344451819
  438000    140.64011    94.433927    -1292.606    -1292.606            0    376.88009   -915.72594   0.36638234 
439000 148.530741578949 -17.1544492834401 -902.415522598051 -1300.44051518005 398.024992582004 0.365487027409272
440000 140.001966093382 26.0003977896678 -922.008507699112 -1297.17852922738 375.17002152827 0.365111037268356
  440000    140.00197    26.000398   -1297.1785   -1297.1785            0    375.17002   -922.00851   0.36511104 
441000 137.995436398166 -92.1868505761193 -902.23551976121 -1272.02854688035 369.793027119139 0.355041146359523
442000 149.586472885522 71.3889475962319 -812.317124990919 -1213.17121167829 400.854086687374 0.344870956318022
  442000    149.58647    71.388948   -1213.1712   -1213.1712            0    400.85409   -812.31712   0.34487096 
443000 143.641797758795 -62.3357264983604 -888.010805213091 -1272.93465922227 384.923854009175 0.357272958942244
444000 143.225331927855 66.9392920343265 -942.530886952434 -1326.33871738623 383.807830433796 0.373305608983642
  444000    143.22533    66.939292   -1326.3387   -1326.3387            0    383.80783   -942.53089   0.37330561 
445000 134.91000677724 -16.7738933067437 -913.310491598313 -1274.83534413671 361.524852538401 0.359035311494428
446000 136.391079739526 63.5130978158685 -969.500257030795 -1334.99401222571 365.493755194919 0.375626710313478
  446000    136.39108    63.513098    -1334.994    -1334.994            0    365.49376   -969.50026   0.37562671 
447000 141.889618587179 47.973581910202 -891.317412456824 -1271.54586742355 380.228454966721 0.360642559917085
448000 133.33632354287 -35.2186332321878 -953.848723889875 -1311.1565015586 357.307777668729 0.367271688165242
  448000    133.33632   -35.218633   -1311.1565   -1311.1565            0    357.30778   -953.84872   0.36727169 
449000 139.497358309829 -68.0223600366229 -882.925341815321 -1256.74314152627 373.817799710951 0.35290003188257
450000 139.288436831704 -52.598243639231 -891.997168809135 -1265.25511155784 373.257942748703 0.356349122486061
  450000    139.28844   -52.598244   -1265.2551   -1265.2551            0    373.25794   -891.99717   0.35634912 
451000 142.150279587695 45.1378522995173 -867.745605028913 -1248.67256585169 380.926960822773 0.354599130729239
452000 142.219045421662 -36.3428226921365 -884.296543330131 -1265.4077792751 381.111235944974 0.355872887981528
  452000    142.21905   -36.342823   -1265.4078   -1265.4078            0    381.11124   -884.29654   0.35587289 
453000 138.964432071497 -9.28070678633826 -918.185774798707 -1290.57546636313 372.389691564424 0.362728506402824
454000 141.867564909831 -25.7951898400131 -911.727557933914 -1291.89691459769 380.169356663775 0.362424656988293
  454000    141.86756    -25.79519   -1291.8969   -1291.8969            0    380.16936   -911.72756   0.36242466 
455000 139.449207660449 -28.9814609980063 -898.789910674219 -1272.47867876748 373.688768093263 0.358116763357162
456000 141.975858354394 28.5951569671171 -901.013892611891 -1281.47344844259 380.459555830699 0.36175049877222
  456000    141.97586    28.595157   -1281.4734   -1281.4734            0    380.45956   -901.01389    0.3617505 
457000 140.337599782305 14.1643662952576 -915.856386337826 -1291.92582165158 376.069435313751 0.36372257618969
458000 143.350103088035 5.5331496998924 -874.536734424035 -1258.6789201541 384.142185730063 0.354765459978047
  458000     143.3501    5.5331497   -1258.6789   -1258.6789            0    384.14219   -874.53673   0.35476546 
459000 138.835570193711 -4.28776491780093 -895.907768994179 -1267.95214316905 372.044374174874 0.357765051443918
460000 138.311857094699 -83.2157103085338 -899.356118382719 -1269.9970733049 370.640954922177 0.355025956607133
  460000    138.31186    -83.21571   -1269.9971   -1269.9971            0    370.64095   -899.35612   0.35502596 
461000 138.053832261849 16.2229953919766 -925.508619067135 -1295.45813239891 369.949513331772 0.366127053900364
462000 140.465236873551 143.061202382837 -929.581003503075 -1305.99247408681 376.411470583732 0.370411709817908
  462000    140.46524     143.0612   -1305.9925   -1305.9925            0    376.41147     -929.581   0.37041171 
463000 138.080176437988 -3.03635596247449 -921.809554120913 -1291.8296632122 370.020109091283 0.362386791389177
464000 134.398263916625 34.3355678824479 -936.965350493799 -1297.11886100472 360.15351051092 0.366975844484222
  464000    134.39826    34.335568   -1297.1189   -1297.1189            0    360.15351   -936.96535   0.36697584 
465000 141.101212837175 65.2824415363378 -895.221289926859 -1273.33701597658 378.115726049724 0.361177590167522
466000 139.047142962577 24.6152231738945 -917.780657850695 -1290.3919937795 372.611335928805 0.363796127239686
  466000    139.04714    24.615223    -1290.392    -1290.392            0    372.61134   -917.78066   0.36379613 
467000 141.652504160864 66.1485864032641 -933.643072370945 -1313.23612037227 379.593048001322 0.371111184445127
468000 137.580225141955 -100.255115831191 -899.398852876954 -1268.07921836513 368.680365488176 0.356703716674659
  468000    137.58023   -100.25512   -1268.0792   -1268.0792            0    368.68037   -899.39885   0.35670372 
469000 139.492176236914 75.2569082302892 -908.487901700802 -1282.29181476101 373.803913060204 0.365395569972826
470000 131.226068626735 6.79373472137649 -902.857451931469 -1254.51027771339 351.652825781921 0.354967432984079
  470000    131.22607    6.7937347   -1254.5103   -1254.5103            0    351.65283   -902.85745   0.35496743 
471000 145.152552322086 14.1517515712198 -883.078903412804 -1272.0511992964 388.972295883599 0.360650773422968
472000 141.148745137944 41.596205952516 -909.770458419576 -1288.01355906839 378.243100648813 0.363173569800433
  472000    141.14875    41.596206   -1288.0136   -1288.0136            0     378.2431   -909.77046   0.36317357 
473000 134.236272513833 -33.4088621883645 -933.915589335533 -1293.63500367075 359.719414335212 0.363751533786819
474000 136.203835881697 -25.0427744514275 -933.276204450216 -1298.26819324761 364.991988797398 0.364710282566874
  474000    136.20384   -25.042774   -1298.2682   -1298.2682            0    364.99199    -933.2762   0.36471028 
475000 141.376409963815 -21.8382257393879 -892.614592255738 -1271.46777731984 378.853185064101 0.359455697097005
476000 141.072400575308 14.4656941801459 -907.59720461557 -1285.63572105741 378.038516441841 0.363135816679045
  476000     141.0724    14.465694   -1285.6357   -1285.6357            0    378.03852    -907.5972   0.36313582 
477000 140.229677322415 36.8863029401744 -897.419079792793 -1273.19931008514 375.78023029235 0.360321254386027
478000 138.791729969692 55.7257025825142 -933.158949900628 -1305.08584331257 371.926893411938 0.369944922312449
  478000    138.79173    55.725703   -1305.0858   -1305.0858            0    371.92689   -933.15895   0.36994492 
479000 140.877870237029 59.2131171020862 -900.026233592971 -1277.54345770416 377.517224111192 0.363560452191188
480000 131.578305201571 -95.1816283437931 -941.314554297423 -1293.91128541905 352.596731121623 0.360267916141707
  480000    131.57831   -95.181628   -1293.9113   -1293.9113            0    352.59673   -941.31455   0.36026792 
481000 139.470305479673 39.3704072446792 -913.95852265265 -1287.70382758974 373.745304937091 0.364658781771693
482000 141.945688443159 28.6736289486966 -926.092085398644 -1306.47079346296 380.378708064317 0.368788813923029
  482000    141.94569    28.673629   -1306.4708   -1306.4708            0    380.37871   -926.09209   0.36878881 
483000 138.626056553706 -34.6443751155523 -916.428215912104 -1287.91114627998 371.482930367874 0.360656425225976
484000 143.29120647824 20.8757786506038 -940.939863018414 -1324.92422066233 383.98435764392 0.371705266967438
  484000    143.29121    20.875779   -1324.9242   -1324.9242            0    383.98436   -940.93986   0.37170527 
485000 140.239209683701 44.7897193863616 -931.39814254499 -1307.20391716567 375.805774620681 0.368294987845456
486000 145.530102496994 52.1722058134127 -891.558966898907 -1281.54300219732 389.984035298413 0.361886831325034
  486000     145.5301    52.172206    -1281.543    -1281.543            0    389.98404   -891.55897   0.36188683 
487000 134.662179358681 42.5072685873923 -923.490983799657 -1284.3517212506 360.860737450945 0.361970816801178
488000 138.306754754318 42.0555650435319 -914.835454514019 -1285.46273644856 370.627281934545 0.364093911509143
  488000    138.30675    42.055565   -1285.4627   -1285.4627            0    370.62728   -914.83545   0.36409391 
489000 139.52043794151 -68.7683866060962 -885.412458175404 -1259.29210548862 373.879647313212 0.352105006374968
490000 140.605076940291 17.4487661808886 -885.907343100866 -1262.69354985662 376.786206755754 0.35681340450858
  490000    140.60508    17.448766   -1262.6935   -1262.6935            0    376.78621   -885.90734    0.3568134 
491000 146.549747292415 -0.230475530027689 -942.527757256977 -1335.24418389619 392.716426639216 0.373211552244639
492000 152.885788391039 -44.5389916560939 -916.283893754299 -1325.97931534412 409.695421589825 0.369570039996297
  492000    152.88579   -44.538992   -1325.9793   -1325.9793            0    409.69542   -916.28389   0.36957004 
493000 133.772109019792 -27.6302790241866 -913.512752937792 -1271.98832596912 358.475573031327 0.358066808470969
494000 142.660554381138 88.6278030926999 -927.056917538472 -1309.35128633832 382.294368799844 0.369364794997448
  494000    142.66055    88.627803   -1309.3513   -1309.3513            0    382.29437   -927.05692   0.36936479 
495000 140.706746330318 -24.652602020021 -896.984327949619 -1274.04298307385 377.058655124228 0.359058118188216
496000 141.419755998234 33.9042123026459 -900.138494302925 -1279.10783582625 378.969341523328 0.361142433263752
  496000    141.41976    33.904212   -1279.1078   -1279.1078            0    378.96934   -900.13849   0.36114243 
497000 145.00208145256 200.877327858486 -926.982431045605 -1315.55150288218 388.569071836573 0.375671348468896
498000 143.709065895635 -25.0113686087853 -896.090884698664 -1281.19500037881 385.104115680141 0.360942707657424
  498000    143.70907   -25.011369    -1281.195    -1281.195            0    385.10412   -896.09088   0.36094271 
499000 138.481981255109 84.0142601240318 -901.549342571595 -1272.64618741235 371.096844840758 0.362722108318562
500000 140.49358781115 52.3401017202804 -901.97262373677 -1278.46006769549 376.487443958721 0.362641537702368
  500000    140.49359    52.340102   -1278.4601   -1278.4601            0    376.48744   -901.97262   0.36264154 
501000 138.729664105578 71.8385508077269 -932.189197436001 -1303.94976995813 371.760572522129 0.370419618288557
502000 133.094202303766 19.028598825634 -960.242084771743 -1316.90103847734 356.658953705596 0.371622414713893
  502000     133.0942    19.028599    -1316.901    -1316.901            0    356.65895   -960.24208   0.37162241 
503000 138.602939283205 21.2390210403705 -912.100821749496 -1283.52180365255 371.420981903052 0.362699165658695
504000 142.084078876465 11.605079068865 -938.957727292753 -1319.70728687646 380.749559583705 0.369435887452531
  504000    142.08408    11.605079   -1319.7073   -1319.7073            0    380.74956   -938.95773   0.36943589 
505000 148.62426584353 41.2064016025935 -900.385691791131 -1298.66130585607 398.275614064939 0.367383304986533
506000 144.975822683115 11.5963746133513 -927.210925114358 -1315.70963005986 388.498704945501 0.368715230189726
  506000    144.97582    11.596375   -1315.7096   -1315.7096            0     388.4987   -927.21093   0.36871523 
507000 137.173930252961 -33.138462152714 -917.530509200832 -1285.12210667736 367.591597476528 0.362065057134839
508000 141.152511697425 21.2442618077354 -929.061586358159 -1307.31478043809 378.253194079933 0.367349774604945
  508000    141.15251    21.244262   -1307.3148   -1307.3148            0    378.25319   -929.06159   0.36734977 
509000 148.375461106196 60.223555057733 -860.944462857874 -1258.55334286709 397.60888000922 0.35670883279002
510000 137.081190997008 2.10760458187369 -899.598384990051 -1266.94146460913 367.343079619075 0.356280963926925
  510000    137.08119    2.1076046   -1266.9415   -1266.9415            0    367.34308   -899.59838   0.35628096 
511000 144.931634864789 9.53973021336495 -889.786304693229 -1278.16659741057 388.380292717337 0.361034698937555
512000 139.257179767946 106.273281281186 -906.792823252022 -1279.96700493929 373.174181687269 0.363353204346096
  512000    139.25718    106.27328    -1279.967    -1279.967            0    373.17418   -906.79282    0.3633532 
513000 141.470303449834 -3.4518511870631 -907.749309819794 -1286.85410578733 379.104795967534 0.362151721926892
514000 144.479096785351 18.8023556958877 -883.107768781555 -1270.27537337927 387.167604597715 0.35981981121571
  514000     144.4791    18.802356   -1270.2754   -1270.2754            0     387.1676   -883.10777   0.35981981 
515000 137.34988870109 121.562072587782 -904.409030761143 -1272.47215257847 368.063121817324 0.364547806833113
516000 141.368993614325 59.1060176174092 -897.810315781293 -1276.64362689594 378.833311114646 0.360712887827955
  516000    141.36899    59.106018   -1276.6436   -1276.6436            0    378.83331   -897.81032   0.36071289 
517000 145.853069200185 19.3737193386256 -878.589785652041 -1269.43929040328 390.849504751236 0.359423733466267
518000 135.837278448859 22.743180487153 -946.182634211821 -1310.19234137556 364.009707163741 0.370170029020961
  518000    135.83728     22.74318   -1310.1923   -1310.1923            0    364.00971   -946.18263   0.37017003 
519000 139.7472446192 2.29121823929437 -937.779288546096 -1312.26672065352 374.487432107428 0.36947597237075
520000 135.049515549224 -37.3100121264293 -928.4528831608 -1290.35158408468 361.898700923885 0.361502449563817
  520000    135.04952   -37.310012   -1290.3516   -1290.3516            0     361.8987   -928.45288   0.36150245 
521000 140.9807914218 -1.01829928331993 -919.945392015549 -1297.73841898997 377.793026974423 0.365369729687745
522000 143.49166129995 -22.8228928241606 -891.566788886685 -1276.08831498527 384.521526098584 0.359866196551587
  522000    143.49166   -22.822893   -1276.0883   -1276.0883            0    384.52153   -891.56679    0.3598662 
523000 137.027666206847 12.1418413842214 -916.22623846333 -1283.42588512045 367.199646657116 0.363082371795381
524000 146.438970454374 167.649270732956 -927.19236517981 -1319.61193778281 392.419572603003 0.375452342263065
  524000    146.43897    167.64927   -1319.6119   -1319.6119            0    392.41957   -927.19237   0.37545234 
525000 143.02985440599 35.9336800471195 -898.925526369578 -1282.20952625919 383.283999889607 0.363500548470357
526000 139.294827445708 -82.870147841883 -895.851432093629 -1269.12650007893 373.275067985302 0.354668438007696
  526000    139.29483   -82.870148   -1269.1265   -1269.1265            0    373.27507   -895.85143   0.35466844 
527000 136.982219420259 66.1214389884992 -889.2223523474 -1256.30021305837 367.077860710974 0.359594610416964
528000 145.355044996774 55.2422161603515 -929.723146172566 -1319.23807144375 389.514925271183 0.371885962902319
  528000    145.35504    55.242216   -1319.2381   -1319.2381            0    389.51493   -929.72315   0.37188596 
529000 135.531682453368 64.386566915799 -904.889427309823 -1268.08021414404 363.190786834216 0.362179875566646
530000 138.16855285287 18.2680490565883 -913.126842085221 -1283.3837777183 370.256935633075 0.36267441827662
  530000    138.16855    18.268049   -1283.3838   -1283.3838            0    370.25694   -913.12684   0.36267442 
531000 139.11715478859 90.1627378068865 -904.991300596337 -1277.79025059233 372.79894999599 0.363369591694593
532000 137.767756378943 -26.2638694637049 -891.391450976257 -1260.57435296575 369.182901989495 0.355843003942866
  532000    137.76776   -26.263869   -1260.5744   -1260.5744            0     369.1829   -891.39145     0.355843 
533000 141.379216941957 -11.7759263736882 -874.753624301744 -1253.61433136057 378.860707058822 0.353876041536846
534000 138.993176791781 21.6046722493363 -893.651579705423 -1266.11829988329 372.466720177868 0.358820773657145
  534000    138.99318    21.604672   -1266.1183   -1266.1183            0    372.46672   -893.65158   0.35882077 
535000 133.436209991122 -29.9356418814333 -916.879439924232 -1274.45488812636 357.575448202127 0.358061063306745
536000 136.492011561381 117.752692648611 -944.105487902876 -1309.86971496926 365.764227066386 0.372709561350209
  536000    136.49201    117.75269   -1309.8697   -1309.8697            0    365.76423   -944.10549   0.37270956 
537000 138.878390848028 -6.32203585741798 -890.125688877098 -1262.2848116248 372.1591227477 0.357359420006311
538000 138.505469212128 -10.3496909958911 -945.576203751884 -1316.73599040401 371.159786652122 0.370261592048257
  538000    138.50547   -10.349691    -1316.736    -1316.736            0    371.15979    -945.5762   0.37026159 
539000 141.92736748767 62.877307092883 -912.852481802521 -1293.1820943187 380.329612516182 0.365984910582536
540000 138.686491598354 -90.0412764750166 -919.564589723646 -1291.20947079574 371.644881072098 0.361014619532078
  540000    138.68649   -90.041276   -1291.2095   -1291.2095            0    371.64488   -919.56459   0.36101462 
541000 145.18588528543 79.2862993241726 -918.867098908447 -1307.92871874173 389.061619833285 0.369347023364197
542000 145.177517497894 -65.8109080395596 -893.727805221876 -1282.76700149128 389.039196269403 0.359031995239476
  542000    145.17752   -65.810908    -1282.767    -1282.767            0     389.0392   -893.72781     0.359032 
543000 148.713811028228 147.889891420033 -896.122176056237 -1294.63774867182 398.515572615582 0.368702508813106
544000 140.517629718123 26.5965079282138 -907.57195376797 -1284.12382398447 376.551870216497 0.3627321473093
  544000    140.51763    26.596508   -1284.1238   -1284.1238            0    376.55187   -907.57195   0.36273215 
545000 139.737737091941 110.290754572938 -933.915882743437 -1308.37783707147 374.461954328035 0.371792395122668
546000 138.125745666198 -29.1417559046935 -897.37742494567 -1267.51964809582 370.142223150145 0.356885295108806
  546000    138.12575   -29.141756   -1267.5196   -1267.5196            0    370.14222   -897.37742    0.3568853 
547000 134.18100469747 30.8290687697109 -918.987633068586 -1278.55894357045 359.571310501863 0.362346196468859
548000 134.55457972425 -40.5547978844375 -926.214027408887 -1286.78642492939 360.572397520498 0.361448265661387
  548000    134.55458   -40.554798   -1286.7864   -1286.7864            0     360.5724   -926.21403   0.36144827 
549000 134.071341818718 13.4925308696025 -930.11890721557 -1289.39634881166 359.277441596087 0.362759082889181
550000 145.593722251023 134.465044504357 -907.935584401203 -1298.09010462318 390.15452022198 0.368831173648246
  550000    145.59372    134.46504   -1298.0901   -1298.0901            0    390.15452   -907.93558   0.36883117 
551000 138.33442714091 -119.995360133461 -944.358920623968 -1315.06035758764 370.701436963674 0.366545153552029
552000 135.318928159789 -72.9651480797957 -903.272561497696 -1265.89322038922 362.62065889152 0.356007875808547
  552000    135.31893   -72.965148   -1265.8932   -1265.8932            0    362.62066   -903.27256   0.35600788 
553000 143.44155052216 41.0427614361856 -919.794368281281 -1304.18161011153 384.387241830249 0.367402453098198
554000 138.091312230946 -9.82453248668112 -898.442083849732 -1268.49203406254 370.049950212806 0.356972296534444
  554000    138.09131   -9.8245325    -1268.492    -1268.492            0    370.04995   -898.44208    0.3569723 
555000 140.080808006255 -26.5994686836554 -886.138491684879 -1261.51978969001 375.381298005132 0.354344787695248
556000 135.346709503858 32.4915923040625 -904.645879704571 -1267.34098560383 362.695105899254 0.361230728049959
  556000    135.34671    32.491592    -1267.341    -1267.341            0    362.69511   -904.64588   0.36123073 
557000 137.876673242642 -18.6716180163795 -903.988581303581 -1273.46335306633 369.474771762747 0.359119185299256
558000 142.693846077539 204.660710539385 -931.041213230507 -1313.42479539502 382.383582164511 0.374485272328197
  558000    142.69385    204.66071   -1313.4248   -1313.4248            0    382.38358   -931.04121   0.37448527 
559000 139.446635619618 29.6179338871668 -920.624147618515 -1294.3060232899 373.681875671386 0.365375997875401
560000 143.818600609947 39.5358937258665 -881.732818850178 -1267.13045998766 385.397641137484 0.359204689043731
  560000     143.8186    39.535894   -1267.1305   -1267.1305            0    385.39764   -881.73282   0.35920469 
561000 138.236611542782 -29.2642390895491 -925.702407071928 -1296.14172285917 370.43931578724 0.364579292123014
562000 135.668998658493 55.2417946886714 -887.46693650936 -1251.02569620189 363.55875969253 0.356768104353816
  562000      135.669    55.241795   -1251.0257   -1251.0257            0    363.55876   -887.46694    0.3567681 
563000 145.069997909441 -4.7842377230134 -880.572557219555 -1269.32362806158 388.751070842026 0.359266908841409
564000 144.55760381206 53.2835715473784 -869.610093950144 -1256.98807761411 387.37798366397 0.35793352551852
  564000     144.5576    53.283572   -1256.9881   -1256.9881            0    387.37798   -869.61009   0.35793353 
565000 139.368024615529 59.2105943877341 -874.353291335379 -1247.82450930731 373.471217971932 0.355756375799181
566000 137.340528567088 -33.74653730245 -935.204028802145 -1303.2420678169 368.038039014754 0.365208280618147
  566000    137.34053   -33.746537   -1303.2421   -1303.2421            0    368.03804   -935.20403   0.36520828 
567000 139.411169449588 -44.1360799019128 -884.418015080549 -1258.0048503454 373.586835264849 0.35530099001167
568000 141.715888496073 32.671489503796 -910.736149588392 -1290.49905165011 379.762902061723 0.363557765706924
  568000    141.71589     32.67149   -1290.4991   -1290.4991            0     379.7629   -910.73615   0.36355777 
569000 139.139954855694 -83.4632046812128 -894.123863987763 -1266.98391242333 372.860048435569 0.355923672335496
570000 142.179333860979 32.7234249187083 -877.806168376544 -1258.81098733687 381.004818960326 0.354992410787755
  570000    142.17933    32.723425    -1258.811    -1258.811            0    381.00482   -877.80617   0.35499241 
571000 144.569316657264 54.6598119324479 -877.853140023793 -1265.26251116402 387.40937114023 0.359170226153802
572000 145.343559643949 -66.5505418972403 -897.857829930842 -1287.34197734806 389.484147417222 0.360035800717511
  572000    145.34356   -66.550542    -1287.342    -1287.342            0    389.48415   -897.85783    0.3600358 
573000 140.400595528411 88.3399461387447 -908.251897483307 -1284.4901455365 376.238248053189 0.366730493148449
574000 134.742580646893 -64.7219369501945 -942.734175366263 -1303.81036802738 361.07619266112 0.365341065951416
  574000    134.74258   -64.721937   -1303.8104   -1303.8104            0    361.07619   -942.73418   0.36534107 
575000 137.317194045195 -5.53396258569163 -928.849613453561 -1296.82512182446 367.975508370898 0.364520806296284
576000 143.599311181045 -3.01858506171519 -869.399804818182 -1254.20980549562 384.81000067744 0.353799372464416
  576000    143.59931   -3.0185851   -1254.2098   -1254.2098            0       384.81    -869.3998   0.35379937 
577000 130.71875139981 -93.7624368336169 -921.328691806025 -1271.62203514453 350.293343338508 0.356680692783131
578000 146.720795330404 16.030247216859 -906.361027082347 -1299.53581939946 393.17479231711 0.367028960163679
  578000     146.7208    16.030247   -1299.5358   -1299.5358            0    393.17479   -906.36103   0.36702896 
579000 145.100858592852 34.4057418614756 -909.451541322437 -1298.28531102636 388.833769703926 0.365850713802437
580000 153.016301722854 -54.8985331786684 -869.565962519426 -1279.61112697982 410.045164460394 0.358984013988684
  580000     153.0163   -54.898533   -1279.6111   -1279.6111            0    410.04516   -869.56596   0.35898401 
581000 137.985072731949 49.3616616654955 -911.817116780183 -1281.58237188307 369.765255102889 0.363614030735317
582000 138.303927992045 -93.2443738295737 -933.706714183691 -1304.32642110702 370.619706923333 0.363809298254471
  582000    138.30393   -93.244374   -1304.3264   -1304.3264            0    370.61971   -933.70671    0.3638093 
583000 143.632589168252 1.56031033709527 -909.21842032112 -1294.11759762604 384.899177304921 0.364797370365466
584000 148.50905018146 106.917335926225 -891.596340910462 -1289.56320600833 397.966865097869 0.365085889212194
  584000    148.50905    106.91734   -1289.5632   -1289.5632            0    397.96687   -891.59634   0.36508589 
585000 138.775698599787 -2.01444283097833 -936.514051550897 -1308.39798492763 371.883933376734 0.367282404850807
586000 141.1822766776 -30.6067474249297 -926.471573651149 -1304.80453038417 378.33295673302 0.366182179004514
  586000    141.18228   -30.606747   -1304.8045   -1304.8045            0    378.33296   -926.47157   0.36618218 
587000 139.298892823394 130.168976088936 -918.005555814703 -1291.29151798868 373.285962173978 0.369423555123783
588000 147.579981712995 -36.8130717657504 -904.585094107945 -1300.0622896173 395.47719550935 0.364382435290874
  588000    147.57998   -36.813072   -1300.0623   -1300.0623            0     395.4772   -904.58509   0.36438244 
589000 135.107190709575 72.0602721169691 -936.938610766339 -1298.99186659938 362.053255833038 0.367975153372702
590000 136.60631736819 16.339276066223 -911.550637919472 -1277.6211757699 366.070537850425 0.36038229381291
  590000    136.60632    16.339276   -1277.6212   -1277.6212            0    366.07054   -911.55064   0.36038229 
591000 132.122565980996 26.1156016460024 -938.765667293288 -1292.82088027793 354.055212984639 0.36605018477395
592000 142.572459859429 32.9729163722414 -895.622238241345 -1277.68053590213 382.058297660785 0.360891491727332
  592000    142.57246    32.972916   -1277.6805   -1277.6805            0     382.0583   -895.62224   0.36089149 
593000 143.613573741615 -34.8933304291022 -898.081873309362 -1282.93009405832 384.848220748955 0.361149754435205
594000 145.859321366521 -26.1707218024041 -846.676840156651 -1237.54309913959 390.866258982939 0.349900051209209
  594000    145.85932   -26.170722   -1237.5431   -1237.5431            0    390.86626   -846.67684   0.34990005 
595000 138.961462578027 19.442112958497 -943.855431482998 -1316.23716555254 372.381734069539 0.37015456608359
596000 145.028378806354 -3.14414032023255 -868.06090602309 -1256.70044814708 388.639542123987 0.354543833832854
  596000    145.02838   -3.1441403   -1256.7004   -1256.7004            0    388.63954   -868.06091   0.35454383 
597000 135.426830050052 4.81780220855946 -965.768612199618 -1328.67842099112 362.909808791499 0.371778606360328
598000 143.930219106475 -79.0497258141453 -920.588884725212 -1306.28563533175 385.696750606543 0.365119447580823
  598000    143.93022   -79.049726   -1306.2856   -1306.2856            0    385.69675   -920.58888   0.36511945 
599000 143.111031061909 70.9416147547893 -912.025280008699 -1295.52681289873 383.501532890027 0.366425986374583
600000 139.447942170968 -54.2838829071674 -942.842370911389 -1316.52774781145 373.685376900061 0.368850193067141
  600000    139.44794   -54.283883   -1316.5277   -1316.5277            0    373.68538   -942.84237   0.36885019 
601000 137.651053950025 -96.2700109291245 -951.121817073029 -1319.99198593462 368.870168861587 0.366781611482136
602000 140.066616580356 -18.614360683527 -933.001766294385 -1308.34503485101 375.343268556627 0.366932083722956
  602000    140.06662   -18.614361    -1308.345    -1308.345            0    375.34327   -933.00177   0.36693208 
603000 141.279064470619 2.62550939129178 -886.036937145025 -1264.62926079555 378.592323650528 0.35760206522579
604000 141.92137489479 50.7786828943676 -887.39292947828 -1267.70648335427 380.313553875991 0.358247141972068
  604000    141.92137    50.778683   -1267.7065   -1267.7065            0    380.31355   -887.39293   0.35824714 
605000 138.77398169608 5.16594967167417 -927.389740230066 -1299.26907273712 371.879332507054 0.364930249430343
606000 132.302641909164 29.1582688192381 -923.97684604591 -1278.51461718121 354.537771135303 0.362517169299329
  606000    132.30264    29.158269   -1278.5146   -1278.5146            0    354.53777   -923.97685   0.36251717 
607000 138.276585234668 -11.666494748173 -881.116750016452 -1251.66318523397 370.546435217516 0.3531573975919
608000 138.962622566069 48.0991298423385 -949.013305824355 -1321.3981483698 372.384842545447 0.372516763003267
  608000    138.96262     48.09913   -1321.3981   -1321.3981            0    372.38484   -949.01331   0.37251676 
609000 137.329642821256 7.70743584619343 -895.421451876165 -1263.43031983274 368.008867956575 0.357174004081447
610000 150.6459101949 53.9265599548395 -878.429525139916 -1282.12263708713 403.693111947219 0.362923182014028
  610000    150.64591     53.92656   -1282.1226   -1282.1226            0    403.69311   -878.42953   0.36292318 
611000 137.800148253741 1.66048899883138 -936.040807665203 -1305.31051172401 369.269704058811 0.366753769787111
612000 140.253709281418 80.0527222016109 -908.450894668183 -1284.29552456025 375.844629892071 0.363500374734572
  612000    140.25371    80.052722   -1284.2955   -1284.2955            0    375.84463   -908.45089   0.36350037 
613000 137.978504714662 42.1070953847135 -932.994492064642 -1302.7421465348 369.747654470155 0.367224905250282
614000 144.403990203213 74.4155377765386 -857.969745711739 -1244.93608357854 386.966337866796 0.353988983795305
  614000    144.40399    74.415538   -1244.9361   -1244.9361            0    386.96634   -857.96975   0.35398898 
615000 141.473474628451 -75.6279746344046 -918.972501883337 -1298.08579581117 379.113293927836 0.36131487573073
616000 145.496354775605 31.8259997992606 -892.837814763945 -1282.73141466553 389.893599901586 0.361844599964156
  616000    145.49635       31.826   -1282.7314   -1282.7314            0     389.8936   -892.83781    0.3618446 
617000 147.163391233056 -26.3525915760656 -875.851586631978 -1270.21242453802 394.360837906039 0.357779333555072
618000 147.536442258597 -89.2921085098315 -866.945694862205 -1262.30621559548 395.360520733277 0.353142861582222
  618000    147.53644   -89.292109   -1262.3062   -1262.3062            0    395.36052   -866.94569   0.35314286 
619000 144.517870018169 -12.878335884706 -866.487899221472 -1253.75940632139 387.271507099922 0.353110968104715
620000 142.565669459758 -41.2034606703469 -911.887821205381 -1293.92792230463 382.040101099253 0.362418344848016
  620000    142.56567   -41.203461   -1293.9279   -1293.9279            0     382.0401   -911.88782   0.36241834 
621000 137.195103969538 104.014340692844 -939.009207383837 -1306.65754508999 367.648337706151 0.370086515554662
622000 143.036019938486 -34.8152720560113 -892.57781222323 -1275.87833418766 383.300521964431 0.358598633029463
  622000    143.03602   -34.815272   -1275.8783   -1275.8783            0    383.30052   -892.57781   0.35859863 
623000 142.507496562503 -10.4124677949847 -872.867638264279 -1254.75185064479 381.88421238051 0.355462877586041
624000 140.032551529382 98.2814609234614 -933.906413446318 -1309.15839624272 375.251982796405 0.369922762651258
  624000    140.03255    98.281461   -1309.1584   -1309.1584            0    375.25198   -933.90641   0.36992276 
625000 139.832739808965 92.3679828987416 -910.233616070055 -1284.95015376135 374.716537691297 0.364582751743996
626000 144.281033853953 90.7536381840494 -896.54066311776 -1283.17750892465 386.636845806893 0.36389035889492
  626000    144.28103    90.753638   -1283.1775   -1283.1775            0    386.63685   -896.54066   0.36389036 
627000 138.1587364325 7.95425585079612 -937.825747121702 -1308.05637721962 370.230630097915 0.368834185635205
628000 144.387571174244 57.7751093923533 -884.286009095477 -1271.20834809837 386.922339002897 0.361718304320878
  628000    144.38757    57.775109   -1271.2083   -1271.2083            0    386.92234   -884.28601    0.3617183 
629000 145.055472910355 -88.8757768544749 -886.713198112778 -1275.42534561414 388.71214750136 0.357313348353399
630000 143.205615841461 81.4277559910478 -899.681280335883 -1283.43627662197 383.754996286083 0.364727788704606
  630000    143.20562    81.427756   -1283.4363   -1283.4363            0      383.755   -899.68128   0.36472779 
631000 140.94846760749 45.7958348518403 -916.837995115668 -1294.54440240575 377.706407290079 0.366304432744064
632000 136.167165618331 -50.479711484348 -906.424363312687 -1271.31808503655 364.893721723867 0.356991828001593
  632000    136.16717   -50.479711   -1271.3181   -1271.3181            0    364.89372   -906.42436   0.35699183 
633000 141.351447707493 -45.5772394871953 -929.069773317279 -1307.85606581906 378.786292501782 0.365703836774244
634000 141.175781606294 -58.4122546015236 -910.231211855415 -1288.54676343257 378.315551577152 0.359679135617647
  634000    141.17578   -58.412255   -1288.5468   -1288.5468            0    378.31555   -910.23121   0.35967914 
635000 141.672835103004 -69.2767589796209 -916.28434529473 -1295.93187510237 379.647529807638 0.362018323268307
636000 136.297883982734 5.8417482371458 -909.547121158014 -1274.79113518817 365.244014030152 0.359451084582668
  636000    136.29788    5.8417482   -1274.7911   -1274.7911            0    365.24401   -909.54712   0.35945108 
637000 140.779344651777 72.7026136066491 -905.805245915384 -1283.0584462634 377.253200348016 0.364687962528879
638000 141.402722649208 -11.333562043956 -900.701191104086 -1279.62488754043 378.92369643634 0.360273241702937
  638000    141.40272   -11.333562   -1279.6249   -1279.6249            0     378.9237   -900.70119   0.36027324 
639000 135.845631423395 9.16524625440816 -901.296288079523 -1265.32837911203 364.032091032511 0.357936382985136
640000 138.048618115222 111.147271705317 -937.110986589341 -1307.04652732089 369.935540731553 0.370456732178076
  640000    138.04862    111.14727   -1307.0465   -1307.0465            0    369.93554   -937.11099   0.37045673 
641000 140.385202187335 6.73464031233033 -915.485151406517 -1291.68214918113 376.196997774609 0.36291017962125
642000 140.044520257762 -51.3136984260826 -911.917457304198 -1287.20151327936 375.284055975158 0.360843471219974
  642000    140.04452   -51.313698   -1287.2015   -1287.2015            0    375.28406   -911.91746   0.36084347 
643000 142.169935682155 4.96131355505255 -890.36645509597 -1271.34608930318 380.97963420721 0.357939231065735
644000 140.028989458118 21.8628259409453 -867.544833029756 -1242.78727037198 375.242437342225 0.352310838985117
  644000    140.02899    21.862826   -1242.7873   -1242.7873            0    375.24244   -867.54483   0.35231084 
645000 142.271305179883 -43.1090192772935 -904.196924677424 -1285.44820361725 381.251278939825 0.359824430769903
646000 141.905966509846 -23.6772293536489 -906.831848048553 -1287.10411133218 380.272263283632 0.361802254301496
  646000    141.90597   -23.677229   -1287.1041   -1287.1041            0    380.27226   -906.83185   0.36180225 
647000 134.169292266875 -53.3769621645877 -929.610936987177 -1289.15086112383 359.539924136649 0.363077330994811
648000 139.912943802666 47.9800372626429 -892.279382558721 -1267.21084676057 374.931464201851 0.359396785942963
  648000    139.91294    47.980037   -1267.2108   -1267.2108            0    374.93146   -892.27938   0.35939679 
649000 142.632085604333 127.398074167329 -913.046625429642 -1295.26470507509 382.218079645448 0.368594177144834
650000 135.555104784931 114.313507707918 -940.280576098448 -1303.53412888433 363.25355278588 0.370741083853615
  650000     135.5551    114.31351   -1303.5341   -1303.5341            0    363.25355   -940.28058   0.37074108 
651000 145.706442918174 -16.3275710675138 -850.29659207181 -1240.75317530263 390.45658323082 0.350928952682028
652000 149.897475545175 27.8147291702076 -877.380882198716 -1279.06837771436 401.687495515643 0.360328314381645
  652000    149.89748    27.814729   -1279.0684   -1279.0684            0     401.6875   -877.38088   0.36032831 
653000 144.789029698006 73.8425527302481 -936.301274246743 -1324.2994210201 387.998146773354 0.374443248386909
654000 147.888947312131 -29.062999375545 -863.3146984994 -1259.6198440277 396.305145528296 0.354617747943338
  654000    147.88895   -29.062999   -1259.6198   -1259.6198            0    396.30515    -863.3147   0.35461775 
[...]
3091000 146.812500676399 58.7660946202385 -927.944885205601 -1321.36542476178 393.420539556175 0.372719404097451
3092000 146.141650224751 12.6624765216994 -884.9867616274 -1276.60959086986 391.622829242458 0.359673790158411
 3092000    146.14165    12.662477   -1276.6096   -1276.6096            0    391.62283   -884.98676   0.35967379 
3093000 139.702718404084 39.9257654767737 -915.532619874679 -1289.90073293574 374.368113061062 0.363700611655327
3094000 141.451028400539 -103.573840391435 -921.648453411184 -1300.70159709939 379.053143688206 0.363019308260936
 3094000    141.45103   -103.57384   -1300.7016   -1300.7016            0    379.05314   -921.64845   0.36301931 
3095000 145.452291394374 111.176148523614 -930.088798087216 -1319.86431922072 389.775521133507 0.373265460521863
3096000 137.473903298462 -57.483811053277 -909.572173946902 -1277.96762366264 368.39544971574 0.359414636090546
 3096000     137.4739   -57.483811   -1277.9676   -1277.9676            0    368.39545   -909.57217   0.35941464 
3097000 141.492271573081 -35.3032083754977 -904.997272771517 -1284.16093777855 379.163665007029 0.361204905016642
3098000 132.295365372271 -143.167030247683 -962.19461499727 -1316.71288684568 354.518271848408 0.366720295355589
 3098000    132.29537   -143.16703   -1316.7129   -1316.7129            0    354.51827   -962.19461    0.3667203 
3099000 143.383120229611 -0.365410211005317 -919.600186961259 -1303.83085031818 384.230663356924 0.366639553075205
3100000 142.349221874465 -66.3010439986289 -888.554686764203 -1270.01476282881 381.460076064605 0.357290230921427
 3100000    142.34922   -66.301044   -1270.0148   -1270.0148            0    381.46008   -888.55469   0.35729023 
3101000 135.577093768435 -105.74004664158 -920.008659539847 -1283.32113726546 363.312477725614 0.359203137234872
3102000 139.722437007412 -41.7353782843501 -910.366725131203 -1284.78767908473 374.420953953526 0.359485779483296
 3102000    139.72244   -41.735378   -1284.7877   -1284.7877            0    374.42095   -910.36673   0.35948578 
3103000 138.440257853046 -16.7857964083749 -902.945888110017 -1273.93092473774 370.985036627723 0.358310365754186
3104000 138.49304695397 126.019034930829 -907.669427832257 -1278.79592596001 371.126498127749 0.365124236376806
 3104000    138.49305    126.01903   -1278.7959   -1278.7959            0     371.1265   -907.66943   0.36512424 
3105000 144.800007684764 -101.218983947296 -886.153006582913 -1274.18057159691 388.027565013993 0.356306876474402
3106000 142.363039171896 -33.524544135028 -906.878935012326 -1288.37603795533 381.497102943007 0.362541119299366
 3106000    142.36304   -33.524544    -1288.376    -1288.376            0     381.4971   -906.87894   0.36254112 
3107000 135.041538161762 -8.01645214773921 -935.425901337983 -1297.3032248719 361.877323533916 0.365160298866881
3108000 141.041759715284 29.1356473928372 -947.638472221338 -1325.59487887261 377.956406651276 0.372759659360625
 3108000    141.04176    29.135647   -1325.5949   -1325.5949            0    377.95641   -947.63847   0.37275966 
3109000 133.911402425004 40.9590167667515 -953.54878426662 -1312.3976285547 358.848844288083 0.370619936374407
3110000 136.739927392044 -101.100885565065 -923.157779026765 -1289.58635810279 366.428579076021 0.360639511437593
 3110000    136.73993   -101.10089   -1289.5864   -1289.5864            0    366.42858   -923.15778   0.36063951 
3111000 143.234503286115 90.205923741281 -872.283243836455 -1256.11565120136 383.832407364906 0.355838901944824
3112000 145.191923438273 146.134919097804 -919.045193170163 -1308.12299373287 389.077800562708 0.37234061486469
 3112000    145.19192    146.13492    -1308.123    -1308.123            0     389.0778   -919.04519   0.37234061 
3113000 136.217496045795 28.0518982827037 -917.216895211256 -1282.24548980929 365.028594598029 0.361255900972038
3114000 138.700830735636 30.6865781631502 -914.097215871905 -1285.78052222182 371.68330634992 0.363240478329375
 3114000    138.70083    30.686578   -1285.7805   -1285.7805            0    371.68331   -914.09722   0.36324048 
3115000 142.283088904332 10.8366811731246 -867.120503579734 -1248.40335993435 381.282856354617 0.353594963835836
3116000 139.681830894946 -60.0783649969996 -901.987187458411 -1276.29932725373 374.312139795317 0.357816032430571
 3116000    139.68183   -60.078365   -1276.2993   -1276.2993            0    374.31214   -901.98719   0.35781603 
3117000 140.840329764624 106.653010045629 -892.729958016767 -1270.14658311329 377.416625096527 0.363687459867978
3118000 139.731427505763 -27.5799653889132 -902.064236233036 -1276.50928245865 374.445046225611 0.358891041095311
 3118000    139.73143   -27.579965   -1276.5093   -1276.5093            0    374.44505   -902.06424   0.35889104 
3119000 140.232040412959 -118.286371064977 -914.598228904081 -1290.38479168414 375.786562780063 0.359808675254104
3120000 137.060751588433 0.0457036642496307 -940.071958777712 -1307.36026592774 367.288307150024 0.367586045690176
 3120000    137.06075  0.045703664   -1307.3603   -1307.3603            0    367.28831   -940.07196   0.36758605 
3121000 139.940280127349 7.59166496272798 -905.065068060115 -1280.06978672979 375.004718669672 0.361859440609283
3122000 135.884010857276 88.8030561953459 -921.83254350918 -1285.96748176189 364.134938252712 0.365290690112809
 3122000    135.88401    88.803056   -1285.9675   -1285.9675            0    364.13494   -921.83254   0.36529069 
3123000 145.359009121532 35.8721477445616 -912.734348388679 -1302.25989651619 389.525548127507 0.36718528369056
3124000 140.708578578076 29.5549862775675 -914.856675656669 -1291.92024074359 377.063565086923 0.36231433984623
 3124000    140.70858    29.554986   -1291.9202   -1291.9202            0    377.06357   -914.85668   0.36231434 
3125000 136.861027123767 -59.770597706507 -917.775127087928 -1284.52822295629 366.753095868358 0.360193188830206
3126000 139.405165907494 -59.0846804835828 -931.62736749023 -1305.19811477375 373.570747283519 0.366569672536136
 3126000    139.40517    -59.08468   -1305.1981   -1305.1981            0    373.57075   -931.62737   0.36656967 
3127000 141.60547414773 58.4781668042257 -943.388682269402 -1322.85570167604 379.467019406636 0.372306918924768
3128000 138.853925651458 -53.0540638841722 -931.843861913816 -1303.93742409419 372.093562180373 0.364479957228965
 3128000    138.85393   -53.054064   -1303.9374   -1303.9374            0    372.09356   -931.84386   0.36447996 
3129000 141.568198987668 -38.4742594673636 -913.356580438539 -1292.72371180079 379.367131362253 0.363877591912833
3130000 142.702352346425 107.892353485719 -926.21374019351 -1308.62011701706 382.406376823546 0.372279226985378
 3130000    142.70235    107.89235   -1308.6201   -1308.6201            0    382.40638   -926.21374   0.37227923 
3131000 137.077113922148 -12.7980261485705 -906.429575568957 -1273.76172965387 367.332154084916 0.359606846440588
3132000 140.548287848709 -2.64415790631154 -891.947495544654 -1268.58152183248 376.634026287822 0.356317930809776
 3132000    140.54829   -2.6441579   -1268.5815   -1268.5815            0    376.63403    -891.9475   0.35631793 
3133000 141.401967520059 16.0072575148685 -933.142717859784 -1312.06439074012 378.921672880334 0.368960262248611
3134000 138.603082889116 16.7490996095574 -909.318347912953 -1280.73971464369 371.421366730738 0.362682108734684
 3134000    138.60308      16.7491   -1280.7397   -1280.7397            0    371.42137   -909.31835   0.36268211 
3135000 144.087553564225 2.0677163091872 -892.908081441042 -1279.02644878304 386.118367341996 0.35967673564062
3136000 142.675540299647 -48.4034498204279 -917.122485720989 -1299.45701300951 382.334527288516 0.363222141079795
 3136000    142.67554    -48.40345    -1299.457    -1299.457            0    382.33453   -917.12249   0.36322214 
3137000 138.969649709442 -40.7968709558092 -902.367831084476 -1274.77150460497 372.403673520498 0.358217015340011
3138000 139.726752602957 21.3251851954754 -877.946580851231 -1252.3790995143 374.43251866307 0.355952863203051
 3138000    139.72675    21.325185   -1252.3791   -1252.3791            0    374.43252   -877.94658   0.35595286 
3139000 143.844593803981 47.8104991023537 -912.031975357171 -1297.49927171049 385.467296353317 0.366322275988653
3140000 140.776548272105 22.898784634724 -914.10446581151 -1291.35017256604 377.245706754526 0.363126012436802
 3140000    140.77655    22.898785   -1291.3502   -1291.3502            0    377.24571   -914.10447   0.36312601 
3141000 135.281246247124 -51.1239374014879 -938.673172604238 -1301.1928534568 362.519680852566 0.364238596825851
3142000 142.316451532731 -27.9794890279968 -894.074897826296 -1275.44715762548 381.372259799183 0.359076246479103
 3142000    142.31645   -27.979489   -1275.4472   -1275.4472            0    381.37226    -894.0749   0.35907625 
3143000 137.640089083959 81.4504432340994 -920.71558090491 -1289.55636668601 368.8407857811 0.364797148726608
3144000 146.398326758093 -78.4798838493846 -872.725371556148 -1265.03602928578 392.310657729634 0.355232814468029
 3144000    146.39833   -78.479884    -1265.036    -1265.036            0    392.31066   -872.72537   0.35523281 
3145000 141.1883212349 -48.5519134392041 -914.73949491444 -1293.08864953922 378.349154624777 0.360511664628602
3146000 140.434346318673 4.66520363466007 -872.89962492193 -1249.22831659575 376.328691673821 0.353497409507597
 3146000    140.43435    4.6652036   -1249.2283   -1249.2283            0    376.32869   -872.89962   0.35349741 
3147000 142.380022248796 71.7028819494504 -853.756459921453 -1235.29907323481 381.542613313354 0.352744441180738
3148000 144.242364836521 -124.212237198543 -878.557111274278 -1265.09033384996 386.533222575682 0.353735316448184
 3148000    144.24236   -124.21224   -1265.0903   -1265.0903            0    386.53322   -878.55711   0.35373532 
3149000 134.370484864828 64.0410709078063 -934.598983141356 -1294.67805278726 360.0790696459 0.366930227828529
3150000 142.444244586782 4.67026902089537 -882.451709025982 -1264.1664220362 381.714713010215 0.357512456852646
 3150000    142.44424     4.670269   -1264.1664   -1264.1664            0    381.71471   -882.45171   0.35751246 
3151000 141.557631780406 12.4438157982465 -905.315775118075 -1284.65458902532 379.338813907244 0.360803093341746
3152000 139.983650477439 -77.1075408625161 -921.327921937628 -1296.4488622264 375.120940288776 0.363635110380016
 3152000    139.98365   -77.107541   -1296.4489   -1296.4489            0    375.12094   -921.32792   0.36363511 
3153000 135.55262843595 5.56572427406457 -886.231282144267 -1249.47819893834 363.246916794071 0.3537431284624
3154000 139.66117427607 28.4991573424877 -912.66187114908 -1286.91865640642 374.256785257344 0.362052610393693
 3154000    139.66117    28.499157   -1286.9187   -1286.9187            0    374.25679   -912.66187   0.36205261 
3155000 143.673599288936 61.4001142133793 -945.203525572478 -1330.21259967592 385.00907410344 0.375036179345513
3156000 141.66991275223 28.7162378048529 -910.279196119247 -1289.91889476256 379.63969864331 0.363913601047945
 3156000    141.66991    28.716238   -1289.9189   -1289.9189            0     379.6397    -910.2792    0.3639136 
3157000 140.572816474633 -60.71068769856 -920.013957640759 -1296.71371447061 376.699756829847 0.362012302919341
3158000 141.88066893006 25.8733514194108 -894.773682530012 -1274.97815466887 380.204472138853 0.360546829243166
 3158000    141.88067    25.873351   -1274.9782   -1274.9782            0    380.20447   -894.77368   0.36054683 
3159000 141.528306158461 138.306225818208 -914.370556482748 -1293.63078510635 379.260228623599 0.366850965030115
3160000 138.478681809048 4.15641645336202 -884.515095961285 -1255.60309911728 371.088003155999 0.354111953416615
 3160000    138.47868    4.1564165   -1255.6031   -1255.6031            0      371.088    -884.5151   0.35411195 
3161000 139.781401875294 34.0261760463479 -916.679638376432 -1291.25860333059 374.578964954156 0.364164321177386
3162000 134.842223262814 -4.03452128275054 -972.609449489143 -1333.9526592744 361.34320978526 0.374535924429601
 3162000    134.84222   -4.0345213   -1333.9527   -1333.9527            0    361.34321   -972.60945   0.37453592 
3163000 140.301962051902 73.2241791215853 -921.497102734493 -1297.4710379031 375.973935168607 0.367032944270222
3164000 137.188570779757 -44.7345840488386 -928.809021136904 -1296.43985153927 367.630830402366 0.363249728885238
 3164000    137.18857   -44.734584   -1296.4399   -1296.4399            0    367.63083   -928.80902   0.36324973 
3165000 139.390053415568 -31.177892866385 -959.141961886381 -1332.67221149634 373.530249609955 0.372405491073774
3166000 137.879860491771 37.670242830698 -913.910195550722 -1283.3935083387 369.483312787976 0.362469706560014
 3166000    137.87986    37.670243   -1283.3935   -1283.3935            0    369.48331    -913.9102   0.36246971 
3167000 145.389857331972 86.803827240807 -890.802408022126 -1280.41062158711 389.608213564985 0.362458935889996
3168000 138.574704336311 35.761233775854 -929.251176173722 -1300.59649552767 371.345319353949 0.367547001495229
 3168000     138.5747    35.761234   -1300.5965   -1300.5965            0    371.34532   -929.25118     0.367547 
3169000 140.954870507592 29.9720861779291 -906.447106759279 -1284.1706722096 377.723565450325 0.362913745939242
3170000 134.161524483405 -11.5545436447898 -906.874194927898 -1266.3933033605 359.519108432605 0.357940522199047
 3170000    134.16152   -11.554544   -1266.3933   -1266.3933            0    359.51911   -906.87419   0.35794052 
3171000 148.903655770732 -1.94919749989358 -875.089451695726 -1274.11376042495 399.024308729221 0.359823570449997
3172000 141.896182911785 17.2161659367202 -912.135296320613 -1292.38134202461 380.246045703997 0.363209192804568
 3172000    141.89618    17.216166   -1292.3813   -1292.3813            0    380.24605    -912.1353   0.36320919 
3173000 139.243331869406 -63.2503612523961 -898.068693972742 -1271.20576677834 373.137072805598 0.35535479505274
3174000 135.70299325282 -38.6057749633196 -943.811422066381 -1307.46127871306 363.649856646675 0.364333407368218
 3174000    135.70299   -38.605775   -1307.4613   -1307.4613            0    363.64986   -943.81142   0.36433341 
3175000 146.366785189907 41.7450928648893 -907.015887005726 -1299.24202127369 392.226134267959 0.367720120211382
3176000 139.480201948397 -77.0868390232092 -880.142356231261 -1253.91418121295 373.771824981685 0.351847934389126
 3176000     139.4802   -77.086839   -1253.9142   -1253.9142            0    373.77182   -880.14236   0.35184793 
3177000 137.981592373556 14.4052898588329 -914.450433254277 -1284.20636187291 369.755928618628 0.361757833594964
3178000 136.919067716499 22.2549136759632 -931.546222937359 -1298.45485298165 366.908630044288 0.366784174605811
 3178000    136.91907    22.254914   -1298.4549   -1298.4549            0    366.90863   -931.54622   0.36678417 
3179000 146.52896810121 -62.0683926609761 -879.800482594297 -1272.46122623256 392.660743638263 0.356673982900627
3180000 141.444521393291 -16.3527802443883 -908.946215533083 -1287.9819220801 379.03570654702 0.362409822142577
 3180000    141.44452    -16.35278   -1287.9819   -1287.9819            0    379.03571   -908.94622   0.36240982 
3181000 134.177572537647 44.4254558590479 -940.379761644782 -1299.94187482242 359.562113177634 0.368147677886876
3182000 145.069979032334 100.775152837302 -907.815400874599 -1296.56642113073 388.751020256131 0.368585800747338
 3182000    145.06998    100.77515   -1296.5664   -1296.5664            0    388.75102    -907.8154    0.3685858 
3183000 140.099683611823 89.7708602150404 -898.209760499179 -1273.64164037501 375.431879875836 0.362411240462464
3184000 141.137465749775 57.8650709233209 -873.308829850285 -1251.52170457856 378.212874728276 0.3561487943222
 3184000    141.13747    57.865071   -1251.5217   -1251.5217            0    378.21287   -873.30883   0.35614879 
3185000 139.073254042326 31.6342090086922 -936.022490647997 -1308.70379769667 372.681307048676 0.369094842984878
3186000 136.149894236093 55.3752820963125 -907.660521450764 -1272.50796021856 364.8474387678 0.360519664647348
 3186000    136.14989    55.375282    -1272.508    -1272.508            0    364.84744   -907.66052   0.36051966 
3187000 139.731162872526 22.8843442072378 -878.906684212314 -1253.35102128748 374.444337075163 0.354394182992738
3188000 137.626834649294 37.0303168848883 -957.998031183421 -1326.80329841662 368.805267233202 0.372415393650804
 3188000    137.62683    37.030317   -1326.8033   -1326.8033            0    368.80527   -957.99803   0.37241539 
3189000 144.393793082372 -22.7195951063062 -878.600748187541 -1265.53976033776 386.939012150221 0.357278088496287
3190000 139.711219535025 -37.1276546402884 -924.687352439927 -1299.07824639162 374.390893951696 0.365335403958057
 3190000    139.71122   -37.127655   -1299.0782   -1299.0782            0    374.39089   -924.68735    0.3653354 
3191000 143.321102105533 95.9764099889228 -889.19093297463 -1273.25540337302 384.064470398391 0.361737090542906
3192000 140.52031095688 30.8475916390735 -929.033098537555 -1305.59215379888 376.559055261325 0.368507337916679
 3192000    140.52031    30.847592   -1305.5922   -1305.5922            0    376.55906    -929.0331   0.36850734 
3193000 139.373536794501 -39.5162270776219 -917.742982305433 -1291.22897152924 373.485989223804 0.362513811793321
3194000 137.193986440042 8.25929718741071 -911.259503988895 -1278.90484699735 367.645343008458 0.361990038266145
 3194000    137.19399    8.2592972   -1278.9048   -1278.9048            0    367.64534    -911.2595   0.36199004 
3195000 142.066017984182 124.158949411317 -908.785695435199 -1289.48685637469 380.701160939487 0.367718202629274
3196000 138.735429791087 26.7435246976637 -935.86747629463 -1307.64349940233 371.776023107696 0.367943498548283
 3196000    138.73543    26.743525   -1307.6435   -1307.6435            0    371.77602   -935.86748    0.3679435 
3197000 141.899651057159 20.4754871963194 -896.638883203881 -1276.89422266432 380.255339460441 0.361183441616742
3198000 140.779161867394 66.1791123832261 -918.62919216785 -1295.88190269974 377.252710531889 0.366172000475872
 3198000    140.77916    66.179112   -1295.8819   -1295.8819            0    377.25271   -918.62919     0.366172 
3199000 137.134488128376 18.0478527389493 -917.142648076202 -1284.62855058899 367.485902512787 0.363015492089185
3200000 142.553564168415 26.1808199981022 -907.481163176252 -1289.48882514239 382.007661966142 0.363704025561567
 3200000    142.55356     26.18082   -1289.4888   -1289.4888            0    382.00766   -907.48116   0.36370403 
Loop time of 616.91 on 36 procs for 3000000 steps with 900 atoms

Performance: 840.317 ns/day, 0.029 hours/ns, 4862.945 timesteps/s
99.6% CPU use with 36 MPI tasks x 1 OpenMP threads

MPI task timing breakdown:
Section |  min time  |  avg time  |  max time  |%varavg| %total
---------------------------------------------------------------
Pair    | 135.78     | 142.33     | 147.8      |  34.9 | 23.07
Bond    | 0.51902    | 0.60207    | 0.80078    |   7.4 |  0.10
Neigh   | 10.891     | 11.182     | 12.526     |  12.3 |  1.81
Comm    | 328.67     | 341.99     | 353.75     |  38.1 | 55.44
Output  | 0.20996    | 0.21094    | 0.22664    |   0.6 |  0.03
Modify  | 93.818     | 100.07     | 109.7      |  41.8 | 16.22
Other   |            | 20.52      |            |       |  3.33

Nlocal:    25 ave 30 max 19 min
Histogram: 1 2 1 2 10 6 7 2 1 4
Nghost:    1237.28 ave 1259 max 1214 min
Histogram: 3 0 5 3 6 4 5 3 5 2
Neighs:    3198.53 ave 3876 max 2432 min
Histogram: 1 1 2 4 9 8 4 3 2 2

Total # of neighbors = 115147
Ave neighs/atom = 127.941
Ave special neighs/atom = 0
Neighbor list builds = 53437
Dangerous builds = 0
unfix integrator
write_restart production.restart
undump traj1
Total wall time: 0:10:17
