LAMMPS (12 Dec 2018)
OMP_NUM_THREADS environment is not set. Defaulting to 1 thread. (../comm.cpp:87)
  using 1 OpenMP thread(s) per MPI task
# Lammps script to read in mBuild topologies and perform energy minimization
# Initialization
units           real
boundary        p p p
atom_style      full

# Assume ff info is included in data file
pair_style     lj/cut/coul/cut ${rcut} # read in from job.sp.r_cut
pair_style     lj/cut/coul/cut 14.0 
bond_style  none
angle_style none
dihedral_style  none
read_restart equilibrated_npt.restart
  restoring atom style full from restart
  triclinic box = (-0.237785 -0.237785 -0.237785) to (40.2178 40.2178 40.2178) with tilt (0 0 0)
  3 by 3 by 4 MPI processor grid
  restoring pair style lj/cut/coul/cut from restart
  restoring bond style harmonic from restart
  restoring angle style harmonic from restart
  restoring dihedral style opls from restart
  900 atoms
  0 = max # of 1-2 neighbors
  0 = max # of 1-3 neighbors
  0 = max # of 1-4 neighbors
  1 = max # of special neighbors

pair_modify shift no  #TODO: Look to make sure this shift is okay

neighbor        2.5 bin #skin cutoff

timestep 2.0
thermo 2000
thermo_style custom step temp press pe epair emol ke etotal density

variable tsample equal ${T} #kelvin, modified by job.sp.temperature
variable tsample equal 140.0 
variable psample equal ${P}/101.325 #kPa to atm modified by job.sp.pressure
variable psample equal 1318.0/101.325 
# ________________________________________________________________________________________

# Production
variable startstep equal step
variable t equal temp
variable pressure equal press
variable e equal etotal
variable p equal pe
variable k equal ke
variable d equal density
variable filename string "prlog.txt"
fix output_data all print 1000 "${startstep} ${t} ${pressure} $e $p $k $d" file ${filename} title "step temp press etotal pe ke density"
fix output_data all print 1000 "${startstep} ${t} ${pressure} $e $p $k $d" file prlog.txt title "step temp press etotal pe ke density"
dump traj1 all dcd 10000 prod.dcd
fix integrator all npt temp ${tsample} ${tsample} 100.0 iso ${psample} ${psample} 1000.0 pchain 10
fix integrator all npt temp 140 ${tsample} 100.0 iso ${psample} ${psample} 1000.0 pchain 10
fix integrator all npt temp 140 140 100.0 iso ${psample} ${psample} 1000.0 pchain 10
fix integrator all npt temp 140 140 100.0 iso 13.007648655317 ${psample} 1000.0 pchain 10
fix integrator all npt temp 140 140 100.0 iso 13.007648655317 13.007648655317 1000.0 pchain 10
fix zeromom all momentum 100 linear 1 1 1 rescale
run 3000000
Neighbor list info ...
  update every 1 steps, delay 10 steps, check yes
  max neighbors/atom: 2000, page size: 100000
  master list distance cutoff = 16.5
  ghost atom cutoff = 16.5
  binsize = 8.25, bins = 5 5 5
  1 neighbor lists, perpetual/occasional/extra = 1 0 0
  (1) pair lj/cut/coul/cut, perpetual
      attributes: half, newton on
      pair build: half/bin/newton/tri
      stencil: half/bin/3d/newton/tri
      bin: standard
Per MPI rank memory allocation (min/avg/max) = 5.73 | 5.773 | 5.982 Mbytes
Step Temp Press PotEng E_pair E_mol KinEng TotEng Density 
  200000    137.78964     10.36868   -1282.2242   -1282.2242            0    369.24156   -912.98266   0.36211139 
201000 142.184267100033 -12.260429836485 -915.3791238426 -1296.39716264157 381.018038798972 0.363336745861124
202000 141.199093893457 19.1590000666625 -928.603500750823 -1306.98152338835 378.37802263753 0.368744789384307
  202000    141.19909       19.159   -1306.9815   -1306.9815            0    378.37802    -928.6035   0.36874479 
203000 142.574161931142 -83.6484245012542 -922.089583247204 -1304.15244203166 382.062858784453 0.364304478562603
204000 133.136154090103 52.2571141988456 -891.435994486425 -1248.20736841741 356.771373930985 0.355486566859566
  204000    133.13615    52.257114   -1248.2074   -1248.2074            0    356.77137   -891.43599   0.35548657 
205000 144.278436925309 47.2673277033861 -901.424666527111 -1288.05455321905 386.629886691941 0.365666342535161
206000 142.499935768854 121.610138483642 -908.663870533974 -1290.52782189105 381.863951357075 0.366343257079878
  206000    142.49994    121.61014   -1290.5278   -1290.5278            0    381.86395   -908.66387   0.36634326 
207000 139.525445185171 -11.9347181940171 -927.421624415001 -1301.31468988058 373.893065465575 0.365406349117057
208000 144.685929103695 159.962331886351 -914.841305451421 -1302.56316858915 387.721863137729 0.371535549111
  208000    144.68593    159.96233   -1302.5632   -1302.5632            0    387.72186   -914.84131   0.37153555 
209000 136.353697159095 -4.37206998533936 -937.58189460593 -1302.97547389692 365.393579290992 0.365309390107191
210000 140.442537464238 82.3197012994074 -904.310321122231 -1280.66096300392 376.350641881692 0.363029583866416
  210000    140.44254    82.319701    -1280.661    -1280.661            0    376.35064   -904.31032   0.36302958 
211000 139.945498317249 -1.2966699335305 -919.232773419566 -1294.25147552441 375.018702104847 0.365349699930395
212000 139.543363724805 -28.6687837589959 -908.929051414176 -1282.87013405471 373.941082640532 0.359220520268387
  212000    139.54336   -28.668784   -1282.8701   -1282.8701            0    373.94108   -908.92905   0.35922052 
213000 133.55701180973 29.1049722370552 -901.029227134709 -1258.92839379703 357.899166662321 0.357085197626588
214000 139.185573070456 -51.6482799948589 -912.242630240957 -1285.22492400702 372.982293766058 0.361297480083096
  214000    139.18557    -51.64828   -1285.2249   -1285.2249            0    372.98229   -912.24263   0.36129748 
215000 142.627488137019 60.1959265470643 -916.428179431541 -1298.63393902207 382.205759590528 0.367614963943534
216000 140.183208914671 29.7486968376046 -897.728890249651 -1273.38459690837 375.655706658716 0.361796761706019
  216000    140.18321    29.748697   -1273.3846   -1273.3846            0    375.65571   -897.72889   0.36179676 
217000 141.324658610144 6.06788878730581 -879.201358518795 -1257.91586298424 378.714504465444 0.354408559154404
218000 142.507021565688 85.7632712176018 -951.38679820245 -1333.26973771108 381.882939508633 0.376305494521939
  218000    142.50702    85.763271   -1333.2697   -1333.2697            0    381.88294    -951.3868   0.37630549 
219000 136.447232731204 11.0063740935957 -907.914887354337 -1273.55911842959 365.644231075255 0.3600274616954
220000 140.44346397565 -14.6097121382689 -895.386714633288 -1271.7398393323 376.353124699011 0.357357829951888
  220000    140.44346   -14.609712   -1271.7398   -1271.7398            0    376.35312   -895.38671   0.35735783 
221000 146.829525796814 35.2520947984247 -906.196892808326 -1299.66305540089 393.466162592559 0.365748214694685
222000 139.804246108347 60.5611572280843 -913.901818631371 -1288.54200037873 374.640181747358 0.364124233026867
  222000    139.80425    60.561157    -1288.542    -1288.542            0    374.64018   -913.90182   0.36412423 
223000 137.056094530706 -10.7880925504777 -952.112906883309 -1319.38873429111 367.2758274078 0.370295969075351
224000 132.771330110506 -8.60345526682172 -935.156444745616 -1290.95018226121 355.793737515592 0.36295562029135
  224000    132.77133   -8.6034553   -1290.9502   -1290.9502            0    355.79374   -935.15644   0.36295562 
225000 139.843940545637 182.703245657075 -955.056071099609 -1329.80262394523 374.746552845624 0.379074297356482
226000 142.162236140217 -4.56207819449337 -913.912657053548 -1294.87165842684 380.959001373292 0.364157566423146
  226000    142.16224   -4.5620782   -1294.8717   -1294.8717            0      380.959   -913.91266   0.36415757 
227000 135.724933871017 5.20118592885378 -912.685907550961 -1276.39455953052 363.708651979563 0.360196834076529
228000 135.120720279195 14.1639323103855 -913.285731819889 -1275.37524349323 362.089511673346 0.360398621019754
  228000    135.12072    14.163932   -1275.3752   -1275.3752            0    362.08951   -913.28573   0.36039862 
229000 140.2013629326 13.5637320602987 -925.764458074267 -1301.46881293049 375.70435485622 0.364776819616949
230000 139.152063047502 26.7107537828687 -889.836740366502 -1262.7292357077 372.892495341194 0.358288090333711
  230000    139.15206    26.710754   -1262.7292   -1262.7292            0     372.8925   -889.83674   0.35828809 
231000 137.429681317485 -8.1494169858999 -880.887386094153 -1249.16433203442 368.27694594027 0.352904437855219
232000 138.097194947979 6.0971835542432 -922.855075790198 -1292.92079020359 370.065714413394 0.363780482673536
  232000    138.09719    6.0971836   -1292.9208   -1292.9208            0    370.06571   -922.85508   0.36378048 
233000 143.300109474818 60.1579526433459 -898.247242440244 -1282.25545787353 384.008215433285 0.361960141997024
234000 134.415062242459 -17.0752589886494 -950.010266977408 -1310.20879277233 360.198525794924 0.368693990194287
  234000    134.41506   -17.075259   -1310.2088   -1310.2088            0    360.19853   -950.01027   0.36869399 
235000 138.379773690274 44.6773189861702 -905.992462866193 -1276.81541716549 370.822954299293 0.360556546223503
236000 140.468636064383 9.14706886472253 -926.281987000159 -1302.70256655952 376.420579559365 0.366877501190243
  236000    140.46864    9.1470689   -1302.7026   -1302.7026            0    376.42058   -926.28199    0.3668775 
237000 147.624012322289 81.8417293514632 -884.500574369079 -1280.09576082597 395.595186456891 0.363283618922163
238000 137.848235415709 -11.504729121585 -918.289410519932 -1287.68797606615 369.398565546219 0.362685736448588
  238000    137.84824   -11.504729    -1287.688    -1287.688            0    369.39857   -918.28941   0.36268574 
239000 139.579819563491 59.4208959125281 -930.044175521531 -1304.08295063144 374.038775109905 0.369487885945546
240000 139.420008537285 58.7732728946797 -898.659556212911 -1272.27007800741 373.610521794503 0.360994108628309
  240000    139.42001    58.773273   -1272.2701   -1272.2701            0    373.61052   -898.65956   0.36099411 
241000 138.697972372951 51.4140073735118 -946.357262127745 -1318.0329087853 371.675646657558 0.371523747894683
242000 131.502821290756 0.19034296545206 -943.504585168586 -1295.89903841344 352.39445324485 0.364257390376648
  242000    131.50282   0.19034297    -1295.899    -1295.899            0    352.39445   -943.50459   0.36425739 
243000 136.452154991055 120.300462090063 -942.631738211241 -1308.28915970364 365.657421492403 0.373025052362578
244000 137.120953873207 -36.5751644494902 -964.99025188938 -1332.43988600577 367.449634116388 0.373076169265912
  244000    137.12095   -36.575164   -1332.4399   -1332.4399            0    367.44963   -964.99025   0.37307617 
245000 138.570455779921 58.4773753776619 -928.987412121516 -1300.32134641398 371.33393429246 0.367563373448552
246000 135.655205081393 75.4199962146402 -947.588770355608 -1311.11056673425 363.521796378643 0.371001041107706
  246000    135.65521    75.419996   -1311.1106   -1311.1106            0     363.5218   -947.58877   0.37100104 
247000 146.80174790613 -86.5496069441098 -889.650257720161 -1283.04198255919 393.391724839027 0.358186030417444
248000 140.277515586064 2.74638871425815 -926.059925175252 -1301.96834997018 375.908424794926 0.365957985529455
  248000    140.27752    2.7463887   -1301.9683   -1301.9683            0    375.90842   -926.05993   0.36595799 
249000 136.833779572499 -128.826216549479 -905.906627041185 -1272.58670633213 366.680079290942 0.354795483544312
250000 141.019818987721 53.8311496522597 -898.321389020981 -1276.2190000463 377.897611025315 0.360095247921327
  250000    141.01982     53.83115    -1276.219    -1276.219            0    377.89761   -898.32139   0.36009525 
251000 141.075480653745 52.3685675705461 -880.626249354995 -1258.67301963159 378.046770276597 0.358974947655602
252000 140.089795750351 107.072878424112 -911.605049345805 -1287.01043224231 375.405382896509 0.366621348020295
  252000     140.0898    107.07288   -1287.0104   -1287.0104            0    375.40538   -911.60505   0.36662135 
253000 131.886546570581 38.4450998956763 -933.678490090086 -1287.10123047625 353.422740386165 0.365184923568457
254000 141.660408074114 72.2064840436759 -871.776305864413 -1251.39053436332 379.614228498903 0.356243897867109
  254000    141.66041    72.206484   -1251.3905   -1251.3905            0    379.61423   -871.77631    0.3562439 
255000 138.316189241275 -14.2111026097501 -910.695904752447 -1281.34846873676 370.652563984316 0.361862058269223
256000 144.151718202172 -38.5888642713481 -883.344089688303 -1269.63440210558 386.290312417279 0.35792635584421
  256000    144.15172   -38.588864   -1269.6344   -1269.6344            0    386.29031   -883.34409   0.35792636 
257000 138.444587845158 2.54835264699258 -894.909976733853 -1265.9066166503 370.996639916443 0.358255938766427
258000 139.230813425335 -87.5062821301437 -865.085018503378 -1238.18854503057 373.103526527193 0.347277541384372
  258000    139.23081   -87.506282   -1238.1885   -1238.1885            0    373.10353   -865.08502   0.34727754 
259000 137.954383106181 98.3669108722689 -913.740444718971 -1283.42345935138 369.683014632405 0.365428687701281
260000 145.127710531197 11.0966417630859 -906.267179830888 -1295.1729059692 388.905726138309 0.36347597255738
  260000    145.12771    11.096642   -1295.1729   -1295.1729            0    388.90573   -906.26718   0.36347597 
261000 141.785409945692 -10.1088964054997 -914.017066214458 -1293.96626825809 379.949202043631 0.363010435687674
262000 139.122349320557 61.5482918099393 -922.344511795955 -1295.15738182981 372.812870033859 0.367537150068828
  262000    139.12235    61.548292   -1295.1574   -1295.1574            0    372.81287   -922.34451   0.36753715 
263000 137.230226386714 -15.6575387653506 -936.150395620799 -1303.89285256238 367.742456941585 0.365505322222236
264000 136.78804549148 0.866460806595861 -914.608647512259 -1281.16617098031 366.557523468055 0.360956128675549
  264000    136.78805   0.86646081   -1281.1662   -1281.1662            0    366.55752   -914.60865   0.36095613 
265000 144.19231960074 17.5949401405265 -868.633083873734 -1255.03219781716 386.399113943428 0.355400095387535
266000 141.790987333029 -41.5456577260846 -924.503126296266 -1304.46727433377 379.964148037501 0.364778256463817
  266000    141.79099   -41.545658   -1304.4673   -1304.4673            0    379.96415   -924.50313   0.36477826 
267000 129.762333853133 -116.350187890091 -925.507323221115 -1273.23770832704 347.730385105925 0.354995277844435
268000 136.968868147103 -71.9477266801739 -923.217878305933 -1290.25996096623 367.042082660298 0.360480666914369
  268000    136.96887   -71.947727     -1290.26     -1290.26            0    367.04208   -923.21788   0.36048067 
269000 138.639989978474 21.0013742407969 -896.566053194269 -1268.08632163257 371.520268438302 0.359064551091977
270000 141.034697295957 82.0508679151682 -940.627150969391 -1318.56463211494 377.937481145548 0.37276091506109
  270000     141.0347    82.050868   -1318.5646   -1318.5646            0    377.93748   -940.62715   0.37276092 
271000 139.571285721366 23.56214239153 -927.144181178633 -1301.16008774017 374.015906561532 0.366831113648716
272000 136.900658330849 -108.057074077636 -956.170489619355 -1323.02978714494 366.859297525586 0.369292578502582
  272000    136.90066   -108.05707   -1323.0298   -1323.0298            0     366.8593   -956.17049   0.36929258 
273000 141.614800295537 -34.0656066217462 -899.859894357997 -1279.35190549276 379.492011134763 0.3602088397477
274000 144.608289082178 84.4058730782474 -914.733279568578 -1302.24708699568 387.513807427105 0.369308861110363
  274000    144.60829    84.405873   -1302.2471   -1302.2471            0    387.51381   -914.73328   0.36930886 
275000 140.737844112336 10.4018096057068 -916.122034610765 -1293.26402396147 377.1419893507 0.365427029500952
276000 149.064737872597 14.5120037907066 -892.808487665464 -1292.26445587284 399.455968207375 0.364606502910606
  276000    149.06474    14.512004   -1292.2645   -1292.2645            0    399.45597   -892.80849    0.3646065 
277000 135.046084808883 6.18573823089006 -909.197981822528 -1271.08748922604 361.889507403511 0.359256994234009
278000 140.629346653892 -74.5315701927968 -936.486929319129 -1313.33817279707 376.85124347794 0.366289166511656
  278000    140.62935    -74.53157   -1313.3382   -1313.3382            0    376.85124   -936.48693   0.36628917 
279000 145.45613290786 88.1597929655732 -898.495163201439 -1288.28097862393 389.785815422489 0.366967534175935
280000 143.066662638132 69.6514385371743 -896.395851476839 -1279.77848816156 383.382636684721 0.36372320117842
  280000    143.06666    69.651439   -1279.7785   -1279.7785            0    383.38264   -896.39585    0.3637232 
281000 132.730965378868 -67.1242284990988 -979.076785524852 -1334.76235572208 355.685570197231 0.373541688114818
282000 146.135771795395 33.8675523601595 -914.623823796239 -1306.230900328 391.607076531766 0.369395034179988
  282000    146.13577    33.867552   -1306.2309   -1306.2309            0    391.60708   -914.62382   0.36939503 
283000 136.942343395571 -8.32409668630183 -950.574460198598 -1317.5454632028 366.971003004198 0.369708984864879
284000 136.257767573242 61.2516047093535 -910.759458636073 -1275.89597078869 365.136512152621 0.360905381844298
  284000    136.25777    61.251605    -1275.896    -1275.896            0    365.13651   -910.75946   0.36090538 
285000 142.912391004583 49.9322551370399 -928.553808996463 -1311.52303654348 382.969227547017 0.370400939876323
286000 140.439509003352 79.7316826544109 -924.993488556169 -1301.33601492515 376.342526368976 0.368000840019064
  286000    140.43951    79.731683    -1301.336    -1301.336            0    376.34253   -924.99349   0.36800084 
287000 141.043985906707 -16.6061176256893 -903.04832089406 -1281.01069317787 377.96237228381 0.359615912917818
288000 137.737671490196 0.61094669623811 -887.138092339902 -1256.24037440188 369.102282061976 0.356177339854465
  288000    137.73767    0.6109467   -1256.2404   -1256.2404            0    369.10228   -887.13809   0.35617734 
289000 142.527886449919 101.444997714125 -925.20841958522 -1307.14727173054 381.938852145325 0.369851782153821
290000 142.720027325372 -52.1479799030641 -903.946546106239 -1286.40028742342 382.453741317181 0.361221316410501
  290000    142.72003    -52.14798   -1286.4003   -1286.4003            0    382.45374   -903.94655   0.36122132 
291000 142.900027463839 84.158430782019 -929.773839003699 -1312.70993537423 382.936096370528 0.370390026329913
292000 144.390499436331 16.6359882053221 -904.405592985705 -1291.33577899376 386.930186008058 0.36341617467318
  292000     144.3905    16.635988   -1291.3358   -1291.3358            0    386.93019   -904.40559   0.36341617 
293000 139.222927623833 5.26039217492009 -937.556763461211 -1310.63915802575 373.082394564538 0.368883886038423
294000 141.639337588237 -5.91316687558762 -930.524234498332 -1310.0819993999 379.557764901567 0.367753114905817
  294000    141.63934   -5.9131669    -1310.082    -1310.082            0    379.55776   -930.52423   0.36775311 
295000 141.685998290124 35.0619696200958 -926.145761970325 -1305.82856580541 379.682803835089 0.367967084138863
296000 139.308868443577 7.7402281669745 -910.003642759563 -1283.31633708412 373.312694324557 0.361366777268691
  296000    139.30887    7.7402282   -1283.3163   -1283.3163            0    373.31269   -910.00364   0.36136678 
297000 142.826540105024 63.5255460408844 -918.259202780478 -1300.99837153093 382.739168750454 0.367888047299842
298000 148.944855950412 14.9950319743803 -912.038053474823 -1311.17276831282 399.134714837998 0.367939968505104
  298000    148.94486    14.995032   -1311.1728   -1311.1728            0    399.13471   -912.03805   0.36793997 
299000 139.1858036582 24.5980256291398 -942.493068753111 -1315.47598043627 372.982911683159 0.371329603203093
300000 137.194528198783 -63.2875568412342 -938.031537495149 -1305.67833228064 367.646794785488 0.365235426500947
  300000    137.19453   -63.287557   -1305.6783   -1305.6783            0    367.64679   -938.03154   0.36523543 
301000 139.002072150245 100.354478547554 -920.046034824075 -1292.53659232309 372.490557499011 0.365939106145734
302000 134.121599313145 57.1406097011535 -929.72018995267 -1289.13230898074 359.41211902807 0.363402320669406
  302000     134.1216     57.14061   -1289.1323   -1289.1323            0    359.41212   -929.72019   0.36340232 
303000 136.356680148985 -15.0213055767074 -897.659858712185 -1263.06143166507 365.401572952883 0.356710862971598
304000 145.654467936221 23.0712174438319 -919.224609008139 -1309.54191237281 390.317303364671 0.368680441084315
  304000    145.65447    23.071217   -1309.5419   -1309.5419            0     390.3173   -919.22461   0.36868044 
305000 140.558859402458 21.3874437655304 -932.139034050245 -1308.80138944057 376.662355390323 0.369508031607179
306000 148.279771015719 101.660640646607 -888.023662926044 -1285.37611758421 397.352454658164 0.363938841111326
  306000    148.27977    101.66064   -1285.3761   -1285.3761            0    397.35245   -888.02366   0.36393884 
307000 133.586604185757 45.6021242229392 -934.813220184728 -1292.79168696447 357.978466779746 0.366283856140764
308000 141.959061624725 16.220518938435 -921.878123421725 -1302.29266824574 380.414544824016 0.368103501417633
  308000    141.95906    16.220519   -1302.2927   -1302.2927            0    380.41454   -921.87812    0.3681035 
309000 139.257907158344 -64.0354593992695 -907.977529646774 -1281.15366055718 373.176130910402 0.359692033672163
310000 143.969228003293 28.0114016714477 -943.297157134211 -1329.09844176315 385.801284628938 0.372919429771999
  310000    143.96923    28.011402   -1329.0984   -1329.0984            0    385.80128   -943.29716   0.37291943 
311000 143.445039225615 12.4700311113256 -921.222489626626 -1305.6190803038 384.396590677174 0.368402243393174
312000 130.613060626886 2.93974422975779 -941.063858891784 -1291.0739775681 350.010118676316 0.363054240907093
  312000    130.61306    2.9397442    -1291.074    -1291.074            0    350.01012   -941.06386   0.36305424 
313000 145.501728066965 12.0438745980532 -909.389072661241 -1299.29707163087 389.907998969625 0.365679230562363
314000 138.103040876715 35.0126555268342 -909.392916896256 -1279.47429692686 370.081380030605 0.363217492828714
  314000    138.10304    35.012656   -1279.4743   -1279.4743            0    370.08138   -909.39292   0.36321749 
315000 146.20374120749 138.591153810674 -902.889407883111 -1294.67862532697 391.789217443857 0.368086700542816
316000 140.012122547858 25.1492868686048 -905.927984268744 -1281.12522253797 375.197238269225 0.362439110872314
  316000    140.01212    25.149287   -1281.1252   -1281.1252            0    375.19724   -905.92798   0.36243911 
317000 139.65329076176 -9.415768515449 -900.098991722213 -1274.334651146 374.235659423787 0.359711976356817
318000 136.005770250925 91.9205786846299 -929.006749335224 -1293.46797210815 364.46122277293 0.367573116229404
  318000    136.00577    91.920579    -1293.468    -1293.468            0    364.46122   -929.00675   0.36757312 
319000 145.399218064151 -43.8052557305456 -895.953846679078 -1285.5871446496 389.633297970518 0.359971992870183
320000 136.686198483017 16.9014475365417 -899.196154389475 -1265.48075351637 366.284599126891 0.358901726965511
  320000     136.6862    16.901448   -1265.4808   -1265.4808            0     366.2846   -899.19615   0.35890173 
321000 137.725624805021 -13.5332143778138 -930.781856734378 -1299.85185671302 369.069999978641 0.365101685902853
322000 145.620639476639 9.87739912040521 -867.503234691207 -1257.72988630102 390.226651609814 0.353908848725909
  322000    145.62064    9.8773991   -1257.7299   -1257.7299            0    390.22665   -867.50323   0.35390885 
323000 142.274575234024 9.15929184248859 -897.419396461912 -1278.67943832355 381.260041861636 0.360162859878838
324000 147.259531284237 -78.2560120154714 -900.412113438689 -1295.03058247719 394.618469038499 0.362051509659712
  324000    147.25953   -78.256012   -1295.0306   -1295.0306            0    394.61847   -900.41211   0.36205151 
325000 138.213494259895 56.8916928436984 -908.582023026012 -1278.95939031524 370.377367289226 0.361100389581889
326000 132.950967100229 -39.4969519086613 -950.554165897734 -1306.82928531947 356.275119421735 0.366952174467649
  326000    132.95097   -39.496952   -1306.8293   -1306.8293            0    356.27512   -950.55417   0.36695217 
327000 146.056972624565 11.9268678592695 -916.079636007041 -1307.47555059986 391.395914592819 0.368630561064319
328000 141.148696821422 30.7171961131395 -902.187051222825 -1280.43002239552 378.242971172697 0.362180332421785
  328000     141.1487    30.717196     -1280.43     -1280.43            0    378.24297   -902.18705   0.36218033 
329000 140.793268595992 62.9634133980554 -938.276764341266 -1315.56727735422 377.29051301295 0.372019838558445
330000 144.902239363207 9.39774005092526 -866.834109337775 -1255.13562951163 388.301520173855 0.355669306714617
  330000    144.90224    9.3977401   -1255.1356   -1255.1356            0    388.30152   -866.83411   0.35566931 
331000 139.564378986184 -45.0163080586374 -900.102005959905 -1274.09940421003 373.99739825012 0.360024338505503
332000 147.977416286967 150.859132192009 -873.847525475408 -1270.38974558287 396.542220107462 0.363253575833078
  332000    147.97742    150.85913   -1270.3897   -1270.3897            0    396.54222   -873.84753   0.36325358 
333000 139.034087600562 14.7112618530102 -951.87410167904 -1324.45045252453 372.576350845491 0.372873753054701
334000 142.37108345427 83.1221397041144 -888.36093658177 -1269.87959617627 381.518659594499 0.361519759527143
  334000    142.37108     83.12214   -1269.8796   -1269.8796            0    381.51866   -888.36094   0.36151976 
335000 137.672338909974 -49.3042773967719 -917.349631417043 -1286.27683861248 368.92720719544 0.362908416577562
336000 142.578642372896 30.4707370151519 -910.239379427346 -1292.31424466768 382.074865240336 0.363811054642015
  336000    142.57864    30.470737   -1292.3142   -1292.3142            0    382.07487   -910.23938   0.36381105 
337000 135.600157568425 104.997695753515 -948.371677717012 -1311.74596061994 363.374282902929 0.37246760697395
338000 143.166200264383 -117.602114454699 -861.912653730121 -1245.5620261931 383.649372462978 0.348678992619025
  338000     143.1662   -117.60211    -1245.562    -1245.562            0    383.64937   -861.91265   0.34867899 
339000 144.931760791437 90.1679049677893 -949.158340532586 -1337.53897070163 388.380630169049 0.376732346992171
340000 133.799348588898 5.53853351825447 -955.555982724594 -1314.10455094315 358.54856821856 0.368977978358605
  340000    133.79935    5.5385335   -1314.1046   -1314.1046            0    358.54857   -955.55598   0.36897798 
341000 143.498630028584 -3.16562575752306 -913.183133888142 -1297.72333442498 384.54020053684 0.366303722750696
342000 139.860504537997 -3.15967579929373 -896.717497131509 -1271.50843730642 374.790940174915 0.35828459322294
  342000     139.8605   -3.1596758   -1271.5084   -1271.5084            0    374.79094    -896.7175   0.35828459 
343000 142.541332727216 112.673458096323 -926.958327758637 -1308.93321254182 381.974884783179 0.370603182180078
344000 140.804610351954 -9.45166392041263 -858.974472573513 -1236.29537863698 377.320906063472 0.351009459326934
  344000    140.80461   -9.4516639   -1236.2954   -1236.2954            0    377.32091   -858.97447   0.35100946 
345000 139.812647999477 41.3056362433231 -933.480384649794 -1308.14308135008 374.662696700284 0.367918031273163
346000 139.278674889819 -32.2821461539444 -887.500078660638 -1260.7318618628 373.231783202167 0.356402345796704
  346000    139.27867   -32.282146   -1260.7319   -1260.7319            0    373.23178   -887.50008   0.35640235 
347000 140.102569089058 95.3237030198711 -935.980604936619 -1311.42021716498 375.439612228365 0.371351090737496
348000 139.199393315444 50.8768104108149 -892.477431232935 -1265.49675977611 373.019328543171 0.35940220511954
  348000    139.19939     50.87681   -1265.4968   -1265.4968            0    373.01933   -892.47743   0.35940221 
349000 145.447133897121 94.9164221512014 -913.314612460553 -1303.0763127999 389.761700339346 0.367850148516285
350000 146.304041722691 41.9393853860435 -915.630512719575 -1307.68851029201 392.057997572433 0.369320006318088
  350000    146.30404    41.939385   -1307.6885   -1307.6885            0      392.058   -915.63051   0.36932001 
351000 141.667323132625 -4.08673193038657 -913.338896900477 -1292.97165601522 379.632759114742 0.363707949944122
352000 141.291905460216 8.71042145348641 -859.870944131839 -1238.49767840157 378.626734269736 0.351715451715131
  352000    141.29191    8.7104215   -1238.4977   -1238.4977            0    378.62673   -859.87094   0.35171545 
353000 141.492741290663 108.842331264457 -907.686015102893 -1286.85093883479 379.164923731892 0.367043115962998
354000 139.774967369289 99.2911099611605 -907.309854594404 -1281.87157669245 374.561722098045 0.365404559933697
  354000    139.77497     99.29111   -1281.8716   -1281.8716            0    374.56172   -907.30985   0.36540456 
355000 138.612834271019 30.8633766380839 -915.717231596017 -1287.1647295752 371.44749797918 0.364712323041421
356000 146.496238250486 -36.7578608201046 -898.731619234287 -1291.30465511284 392.573035878554 0.362170862110548
  356000    146.49624   -36.757861   -1291.3047   -1291.3047            0    392.57304   -898.73162   0.36217086 
357000 133.724991231963 -16.8998991900023 -911.39000338498 -1269.73931260754 358.349309222556 0.359313100577666
358000 136.850207363933 -93.2774123347989 -942.363726432518 -1309.08782806856 366.724101636041 0.364891253556344
  358000    136.85021   -93.277412   -1309.0878   -1309.0878            0     366.7241   -942.36373   0.36489125 
359000 134.331829440319 0.0649007857960035 -939.384835834706 -1299.360318675 359.975482840299 0.365408524064681
360000 142.094497025417 5.31053499039247 -923.387396700482 -1304.16487430045 380.777477599968 0.366943159113783
  360000     142.0945     5.310535   -1304.1649   -1304.1649            0    380.77748    -923.3874   0.36694316 
361000 144.221312406503 -26.2436487583721 -907.851546906111 -1294.32835426961 386.476807363499 0.363320222113936
362000 141.776180938656 -7.70807639146146 -909.792704011652 -1289.71717463997 379.924470628314 0.361477969080678
  362000    141.77618   -7.7080764   -1289.7172   -1289.7172            0    379.92447    -909.7927   0.36147797 
363000 141.508704512825 13.9081250488023 -861.92065617362 -1241.12835732192 379.207701148304 0.352519102549117
364000 134.41384782621 14.1540279441273 -959.370879252811 -1319.56615071793 360.195271465123 0.371385651874369
  364000    134.41385    14.154028   -1319.5662   -1319.5662            0    360.19527   -959.37088   0.37138565 
365000 138.424800118786 -6.78936099989372 -908.930610577907 -1279.87422436953 370.943613791625 0.359263218600514
366000 141.188761982379 63.1232583831896 -918.359635346042 -1296.7099710631 378.350335717056 0.365176194253173
  366000    141.18876    63.123258     -1296.71     -1296.71            0    378.35034   -918.35964   0.36517619 
367000 139.252688978747 36.0928019321225 -922.705118677507 -1295.86726618035 373.16214750284 0.365125693556942
368000 141.369280842694 -2.69625664713729 -931.497700575357 -1310.33178138972 378.834080814359 0.367044064675675
  368000    141.36928   -2.6962566   -1310.3318   -1310.3318            0    378.83408    -931.4977   0.36704406 
369000 134.920482290949 -51.217762099983 -937.791008263053 -1299.34393254082 361.552924277772 0.362442647952884
370000 136.984295431064 -110.86778762201 -894.375326879924 -1261.45875077719 367.083423897264 0.352837033461534
  370000     136.9843   -110.86779   -1261.4588   -1261.4588            0    367.08342   -894.37533   0.35283703 
371000 137.304026074516 -23.7680967749037 -901.041565503995 -1268.98178702871 367.940221524713 0.356916086950968
372000 139.041915505058 -126.064634740607 -883.813587697979 -1256.41091535673 372.597327658747 0.351130929280667
  372000    139.04192   -126.06463   -1256.4109   -1256.4109            0    372.59733   -883.81359   0.35113093 
373000 141.477259216432 19.4348635247656 -916.114739096385 -1295.23817476718 379.123435670798 0.363780315938482
374000 140.708287215831 -22.5252563939303 -905.905432756602 -1282.96821706606 377.062784309461 0.359602228833906
  374000    140.70829   -22.525256   -1282.9682   -1282.9682            0    377.06278   -905.90543   0.35960223 
375000 136.267048855975 15.6289705582167 -930.825519029559 -1295.9869026832 365.161383653645 0.366228664601683
376000 144.31456526669 91.0408416110796 -892.366855212894 -1279.09355676388 386.726701550989 0.362785650730294
  376000    144.31457    91.040842   -1279.0936   -1279.0936            0     386.7267   -892.36686   0.36278565 
377000 141.159560906179 -73.9268596926634 -921.057468381776 -1299.32955256643 378.27208418465 0.362728816198658
378000 144.248505828027 -8.37884106612081 -938.922041027689 -1325.47171991452 386.54967888683 0.371122734704189
  378000    144.24851   -8.3788411   -1325.4717   -1325.4717            0    386.54968   -938.92204   0.37112273 
379000 130.181483110486 -22.9512008054248 -955.498680999881 -1304.35228058838 348.853599588497 0.367246723757162
380000 143.396989238848 -92.7050900060793 -884.133176160752 -1268.4010049707 384.267828809948 0.354793889512043
  380000    143.39699    -92.70509    -1268.401    -1268.401            0    384.26783   -884.13318   0.35479389 
381000 139.100553706933 67.7695534187759 -929.767514342491 -1302.52197761921 372.75446327672 0.366884591961139
382000 141.944729121612 45.631245353482 -905.91858508499 -1286.29472240909 380.376137324095 0.364253451407204
  382000    141.94473    45.631245   -1286.2947   -1286.2947            0    380.37614   -905.91859   0.36425345 
383000 149.425175779856 7.50546263744717 -907.800674904502 -1308.22252595766 400.421851053163 0.366204412504314
384000 138.696697802229 2.41717587652405 -913.838201486903 -1285.51043261582 371.672231128916 0.362057166664777
  384000     138.6967    2.4171759   -1285.5104   -1285.5104            0    371.67223    -913.8382   0.36205717 
385000 137.790449503063 -3.44252171867588 -934.502854780991 -1303.74656862979 369.2437138488 0.36719044512487
386000 140.082232052967 -40.0333727655716 -911.35170553999 -1286.73681963179 375.385114091795 0.360797807659041
  386000    140.08223   -40.033373   -1286.7368   -1286.7368            0    375.38511   -911.35171   0.36079781 
387000 130.143464845445 -18.0571941126629 -962.50333568145 -1311.25505589131 348.751720209857 0.368123672008583
388000 136.428626915492 50.1657246875408 -931.039575677092 -1296.63394785053 365.594372173442 0.366870266830474
  388000    136.42863    50.165725   -1296.6339   -1296.6339            0    365.59437   -931.03958   0.36687027 
389000 142.396623549515 28.8013086438362 -881.223239432726 -1262.81034005238 381.587100619652 0.355979180311228
390000 141.415969350517 18.0336572621403 -893.152368279079 -1272.11156253987 378.959194260792 0.359693532549193
  390000    141.41597    18.033657   -1272.1116   -1272.1116            0    378.95919   -893.15237   0.35969353 
391000 142.857333000999 23.7585156544165 -936.371355936964 -1319.19304189606 382.821685959091 0.368865589674438
392000 140.692590012958 97.2091425485861 -948.184655834661 -1325.20537559243 377.020719757768 0.375385969408452
  392000    140.69259    97.209143   -1325.2054   -1325.2054            0    377.02072   -948.18466   0.37538597 
393000 139.014640434232 18.8501852072559 -922.488182238474 -1295.01241957431 372.524237335841 0.366187913957968
394000 139.806332344095 -63.0427738635413 -910.646607764599 -1285.29238009852 374.645772333922 0.360343261395049
  394000    139.80633   -63.042774   -1285.2924   -1285.2924            0    374.64577   -910.64661   0.36034326 
395000 138.701206588857 -54.5328149695745 -915.193007860819 -1286.87732140274 371.684313541924 0.361224922571815
396000 142.731991017126 -70.9583511409073 -920.417875385907 -1302.90367638495 382.485800999043 0.364252576647494
  396000    142.73199   -70.958351   -1302.9037   -1302.9037            0     382.4858   -920.41788   0.36425258 
397000 138.1810292439 -10.4003392619401 -878.91325975888 -1249.2036289788 370.290369219917 0.353349135658505
398000 142.433479986168 32.091501182429 -909.88856141069 -1291.57442800141 381.685866590721 0.364480838450834
  398000    142.43348    32.091501   -1291.5744   -1291.5744            0    381.68587   -909.88856   0.36448084 
399000 141.307642633616 56.4795586027836 -902.908986419602 -1281.57789235198 378.668905932377 0.362435608285791
400000 136.39713952258 -88.5409133960205 -900.99377243885 -1266.50376632671 365.509993887861 0.355179482968932
  400000    136.39714   -88.540913   -1266.5038   -1266.5038            0    365.50999   -900.99377   0.35517948 
401000 136.043091486269 20.6803111980287 -929.817794160468 -1294.37902844794 364.561234287472 0.364963113385119
402000 134.648799620828 -1.18860545630206 -888.971031020725 -1249.79591414278 360.824883122051 0.353519157302311
  402000     134.6488   -1.1886055   -1249.7959   -1249.7959            0    360.82488   -888.97103   0.35351916 
403000 144.36777941081 -0.453772169542899 -916.42604009388 -1303.29534215365 386.86930205977 0.365570068916698
404000 141.192545918244 15.2024245434466 -887.408598350557 -1265.76907406307 378.360475712512 0.358537837984123
  404000    141.19255    15.202425   -1265.7691   -1265.7691            0    378.36048    -887.4086   0.35853784 
405000 138.622249963105 1.20619191536291 -924.617917903108 -1296.09064756654 371.472729663429 0.365035573131779
406000 136.780658790938 87.1033370278718 -904.983093100784 -1271.5208220711 366.537728970316 0.361850082974381
  406000    136.78066    87.103337   -1271.5208   -1271.5208            0    366.53773   -904.98309   0.36185008 
407000 144.83979180006 24.3049475901464 -882.836152221798 -1270.97032864853 388.134176426736 0.359577056686238
408000 147.093764576057 56.8348378409947 -883.500902502251 -1277.67515849709 394.174255994839 0.364114237183545
  408000    147.09376    56.834838   -1277.6752   -1277.6752            0    394.17426    -883.5009   0.36411424 
409000 143.78645755758 93.8315564500793 -896.68552952826 -1281.9970353779 385.311505849638 0.363396212449181
410000 135.850257853883 43.5393194616113 -946.091952297943 -1310.13644099939 364.044488701446 0.369427082999752
  410000    135.85026    43.539319   -1310.1364   -1310.1364            0    364.04449   -946.09195   0.36942708 
411000 139.984115290862 27.2568983221413 -938.262112110595 -1313.38429798232 375.122185871724 0.371096422485859
412000 130.412820386923 -52.7246679362417 -929.046277095444 -1278.51980234215 349.473525246707 0.35937838478829
  412000    130.41282   -52.724668   -1278.5198   -1278.5198            0    349.47353   -929.04628   0.35937838 
413000 135.015107824797 118.274213656214 -938.486714919662 -1300.29321180474 361.806496885083 0.370469090784548
414000 140.909447609085 80.9583237517955 -883.171402549916 -1260.77324606814 377.601843518225 0.359567154030751
  414000    140.90945    80.958324   -1260.7732   -1260.7732            0    377.60184    -883.1714   0.35956715 
415000 136.961220076367 -57.3036592078874 -954.661115299465 -1321.68270305571 367.021587756242 0.368149159645767
416000 144.716698309734 -11.2388004012246 -902.190398347416 -1289.99471521072 387.8043168633 0.361122867939638
  416000     144.7167     -11.2388   -1289.9947   -1289.9947            0    387.80432    -902.1904   0.36112287 
417000 137.576447813605 148.013724088959 -908.318627196335 -1276.98887039553 368.670243199198 0.365326619520474
418000 148.379774372629 73.0723995385393 -892.065755578925 -1289.68619405626 397.620438477332 0.365779612296341
  418000    148.37977      73.0724   -1289.6862   -1289.6862            0    397.62044   -892.06576   0.36577961 
419000 135.002205149902 -8.9443908515459 -894.32826536806 -1256.10018633287 361.771920964807 0.354649282533581
420000 143.537883890601 -59.6953495788518 -894.342231779947 -1278.98762278424 384.645391004296 0.3570427769051
  420000    143.53788    -59.69535   -1278.9876   -1278.9876            0    384.64539   -894.34223   0.35704278 
421000 140.397119944791 108.791202687906 -917.203266201997 -1293.43220056611 376.228934364116 0.365198864786581
422000 140.725813397228 35.4050857785245 -886.109530073953 -1263.21928013708 377.109750063125 0.358964513009857
  422000    140.72581    35.405086   -1263.2193   -1263.2193            0    377.10975   -886.10953   0.35896451 
423000 138.927468680071 41.2451255039127 -936.569582775274 -1308.86022175676 372.29063898149 0.370524161314053
424000 140.8082674734 -38.5061567236187 -899.355047381944 -1276.68575361015 377.33070622821 0.360295570440014
  424000    140.80827   -38.506157   -1276.6858   -1276.6858            0    377.33071   -899.35505   0.36029557 
425000 142.348076977322 105.574249299219 -883.036620488716 -1264.49362851722 381.457008028504 0.360879347090202
426000 141.513157885414 35.7112654299918 -922.947535731768 -1302.16717079741 379.219635065639 0.367123892466126
  426000    141.51316    35.711265   -1302.1672   -1302.1672            0    379.21964   -922.94754   0.36712389 
427000 141.623935165326 66.5190491894851 -916.337894199293 -1295.85438448525 379.516490285955 0.365531663354133
428000 139.906385924616 3.90816180273287 -936.637502178806 -1311.55139291853 374.913890739722 0.36861859272855
  428000    139.90639    3.9081618   -1311.5514   -1311.5514            0    374.91389    -936.6375   0.36861859 
429000 135.759755552218 -10.0912632903955 -921.916212064118 -1285.71817738242 363.801965318299 0.363643663872159
430000 134.536144804635 -171.252212883524 -908.383952531197 -1268.9069491084 360.522996577199 0.35414889239885
  430000    134.53614   -171.25221   -1268.9069   -1268.9069            0      360.523   -908.38395   0.35414889 
431000 140.956396079799 38.066021057871 -864.455954031652 -1242.18360763141 377.727653599755 0.352748573181194
432000 139.566705833341 11.1210905741635 -924.408762371196 -1298.41239598588 374.003633614682 0.365754977421973
  432000    139.56671    11.121091   -1298.4124   -1298.4124            0    374.00363   -924.40876   0.36575498 
433000 136.290404615185 5.34412391402847 -921.570467833807 -1286.79443904197 365.223971208162 0.363992196069165
434000 135.592062027078 -43.5005061487572 -893.61944863243 -1256.97203752272 363.352588890293 0.353193815214437
  434000    135.59206   -43.500506    -1256.972    -1256.972            0    363.35259   -893.61945   0.35319382 
435000 143.187837697396 46.6787149794146 -895.860437053584 -1279.56779238949 383.707355335905 0.360481521312816
436000 138.539211659638 -20.7036888518731 -918.572395596487 -1289.82260351277 371.250207916278 0.360906649348117
  436000    138.53921   -20.703689   -1289.8226   -1289.8226            0    371.25021    -918.5724   0.36090665 
437000 137.073483110405 -0.821338264091498 -906.871110372544 -1274.1935347961 367.322424423556 0.358266035429853
438000 145.405178742869 -51.635973955767 -885.162683026134 -1274.81195411493 389.649271088792 0.357962203004455
  438000    145.40518   -51.635974    -1274.812    -1274.812            0    389.64927   -885.16268    0.3579622 
439000 137.964964807941 44.3907409659111 -939.304455338168 -1309.01582626719 369.711370929018 0.369422794008698
440000 136.135637364836 11.5944958766099 -940.266477876941 -1305.07571181915 364.809233942211 0.367153296730953
  440000    136.13564    11.594496   -1305.0757   -1305.0757            0    364.80923   -940.26648    0.3671533 
441000 143.455771270694 72.0157477767403 -895.358353784108 -1279.78370364014 384.425349856033 0.363766982850388
442000 137.570369388446 168.009109288007 -903.505760337612 -1272.15971488772 368.653954550109 0.366518657780614
  442000    137.57037    168.00911   -1272.1597   -1272.1597            0    368.65395   -903.50576   0.36651866 
443000 148.953485239937 28.5905519081833 -879.285665389133 -1278.4435045505 399.157839161372 0.360475643390184
444000 134.471790562855 107.770103801121 -945.142228940502 -1305.49277235188 360.350543411376 0.371477991681618
  444000    134.47179     107.7701   -1305.4928   -1305.4928            0    360.35054   -945.14223   0.37147799 
445000 138.201047798591 -23.6810376121684 -917.151327768656 -1287.49534167517 370.344013906514 0.36286529390423
446000 141.006248716753 58.6140057336108 -908.949755778971 -1286.81100189461 377.86124611564 0.365868012448661
  446000    141.00625    58.614006    -1286.811    -1286.811            0    377.86125   -908.94976   0.36586801 
447000 138.126343497642 106.443541739826 -972.508350751818 -1342.65217593972 370.143825187903 0.379493346835899
448000 144.425687321038 -10.3187938631216 -886.385013081207 -1273.4094937612 387.024480679993 0.357589228106304
  448000    144.42569   -10.318794   -1273.4095   -1273.4095            0    387.02448   -886.38501   0.35758923 
449000 143.733526838874 26.8693619649611 -878.51178023836 -1263.68144508797 385.16966484961 0.357118955985032
450000 139.311423758924 3.35744951430425 -909.956917028409 -1283.27645895476 373.319541926348 0.361556076186544
  450000    139.31142    3.3574495   -1283.2765   -1283.2765            0    373.31954   -909.95692   0.36155608 
451000 148.830415718906 56.2935256809344 -895.492069243274 -1294.32011307289 398.828043829613 0.364023003183004
452000 142.902698648959 -10.1110812465018 -911.383734319411 -1294.32698879355 382.94325447414 0.363584561106142
  452000     142.9027   -10.111081    -1294.327    -1294.327            0    382.94325   -911.38373   0.36358456 
453000 138.588301613344 80.9489432364151 -931.809037024494 -1303.19079365757 371.381756633076 0.370070242929742
454000 139.510818085478 -4.11626389926616 -915.158433617765 -1289.01230213876 373.853868520991 0.363023815724245
  454000    139.51082   -4.1162639   -1289.0123   -1289.0123            0    373.85387   -915.15843   0.36302382 
455000 140.11720229217 160.350996347706 -936.705649820401 -1312.18447534898 375.478825528576 0.371973354636819
456000 144.350728304651 -12.931494691127 -899.875621620949 -1286.69923100909 386.823609388136 0.361005598721942
  456000    144.35073   -12.931495   -1286.6992   -1286.6992            0    386.82361   -899.87562    0.3610056 
457000 138.755880946128 40.2553383281331 -908.291772876183 -1280.1225999305 371.83082705432 0.362054304006779
458000 138.164155248097 -65.1129618721961 -907.058328023296 -1277.30347918274 370.245151159446 0.358906647234507
  458000    138.16416   -65.112962   -1277.3035   -1277.3035            0    370.24515   -907.05833   0.35890665 
459000 145.035966221748 28.0375663654552 -949.033428948047 -1337.69330343504 388.659874486997 0.375160521506348
460000 139.63888832309 25.0732164344373 -926.918273426973 -1301.11533794115 374.19706451418 0.367112901232787
  460000    139.63889    25.073216   -1301.1153   -1301.1153            0    374.19706   -926.91827    0.3671129 
461000 138.42001384672 49.5966539471344 -927.227808895908 -1298.15859668341 370.930787787502 0.368717693164071
462000 146.285713274658 -60.2843428487999 -909.988515206685 -1301.99739715285 392.008881946166 0.363606703562148
  462000    146.28571   -60.284343   -1301.9974   -1301.9974            0    392.00888   -909.98852    0.3636067 
463000 134.490034209078 91.9698632751135 -927.799955476523 -1288.19938726666 360.399431790141 0.365697816882506
464000 142.048230322111 -59.5497155900082 -890.82720486826 -1271.48069935171 380.653494483447 0.356347845764689
  464000    142.04823   -59.549716   -1271.4807   -1271.4807            0    380.65349    -890.8272   0.35634785 
465000 139.936143366532 -40.1553908500495 -892.549379069936 -1267.54301226211 374.993633192174 0.35686277937528
466000 147.233258397425 -8.77868139097345 -878.39541518264 -1272.94347949908 394.548064316436 0.359563617520109
  466000    147.23326   -8.7786814   -1272.9435   -1272.9435            0    394.54806   -878.39542   0.35956362 
467000 139.689571239404 -55.5804590584497 -885.99785119104 -1260.33073316075 374.332881969714 0.353704399188291
468000 135.175210473087 1.41565764905969 -962.308407372531 -1324.54393904678 362.235531674249 0.372426621552508
  468000    135.17521    1.4156576   -1324.5439   -1324.5439            0    362.23553   -962.30841   0.37242662 
469000 135.599013613501 -140.427359118301 -947.252140888527 -1310.62335828027 363.37121739174 0.364088992563206
470000 139.115612780514 67.4008088933235 -892.527750422243 -1265.32256822481 372.794817802571 0.360244048008682
  470000    139.11561    67.400809   -1265.3226   -1265.3226            0    372.79482   -892.52775   0.36024405 
471000 139.11803614381 38.1860091542895 -880.383375139812 -1253.1846869459 372.801311806086 0.354690837593067
472000 142.700336628875 -42.6195097109716 -882.282487992498 -1264.6834632005 382.400975207999 0.354932845696756
  472000    142.70034    -42.61951   -1264.6835   -1264.6835            0    382.40098   -882.28249   0.35493285 
473000 144.960873721221 25.3276834620755 -861.925562399161 -1250.38420789041 388.458645491251 0.353756861586028
474000 133.713762755695 85.9787559021309 -964.922762086244 -1323.24198181934 358.319219733096 0.373759559034851
  474000    133.71376    85.978756    -1323.242    -1323.242            0    358.31922   -964.92276   0.37375956 
475000 136.752436746447 -43.9520097003656 -887.088585717729 -1253.55068671413 366.462100996404 0.353235859424427
476000 136.151726526359 62.7604130136681 -943.530117922544 -1308.38246676695 364.852348844405 0.370526030971187
  476000    136.15173    62.760413   -1308.3825   -1308.3825            0    364.85235   -943.53012   0.37052603 
477000 141.612439865259 4.69199532562485 -876.445258429768 -1255.93094420566 379.485685775891 0.355548680747614
478000 144.319658582001 106.712601448914 -893.138598318768 -1279.87894867247 386.740350353703 0.364310707801773
  478000    144.31966     106.7126   -1279.8789   -1279.8789            0    386.74035    -893.1386   0.36431071 
479000 136.704063511941 64.3864878279048 -922.621692810264 -1288.95416571688 366.332472906616 0.366214676911429
480000 141.4783196312 69.4218681653838 -890.008419370373 -1269.13469668577 379.1262773154 0.360852151690175
  480000    141.47832    69.421868   -1269.1347   -1269.1347            0    379.12628   -890.00842   0.36085215 
481000 138.867277320061 0.95672028573319 -910.130612308162 -1282.25995359891 372.129341290746 0.361837728430727
482000 140.965062093483 -37.3403580734508 -923.946436912169 -1301.6973132468 377.750876334627 0.365216118482121
  482000    140.96506   -37.340358   -1301.6973   -1301.6973            0    377.75088   -923.94644   0.36521612 
483000 136.23684383585 -118.984014116367 -897.177052926287 -1262.25749473057 365.080441804278 0.352419275955167
484000 141.134111827249 24.929873818533 -896.745951564428 -1274.94983862473 378.203887060306 0.359165154683781
  484000    141.13411    24.929874   -1274.9498   -1274.9498            0    378.20389   -896.74595   0.35916515 
485000 140.029794309075 23.5979853435539 -928.249161224395 -1303.49375536455 375.244594140155 0.367741290910957
486000 139.7959103403 74.7772644826331 -954.651573739073 -1329.26941772672 374.617843987648 0.376537366661068
  486000    139.79591    74.777264   -1329.2694   -1329.2694            0    374.61784   -954.65157   0.37653737 
487000 138.913659592117 73.550732800675 -928.866240438075 -1301.1198745405 372.253634102421 0.368186368611082
488000 138.558580074312 -14.0703964846627 -892.648597066914 -1263.95070745823 371.302110391316 0.357250942390219
  488000    138.55858   -14.070396   -1263.9507   -1263.9507            0    371.30211    -892.6486   0.35725094 
489000 134.995423291592 -44.0858758706253 -880.906688598064 -1242.66043589004 361.753747291972 0.349744322666512
490000 142.008098917792 12.0759798712899 -917.174085771612 -1297.72003819517 380.545952423558 0.365222671918097
  490000     142.0081     12.07598     -1297.72     -1297.72            0    380.54595   -917.17409   0.36522267 
491000 141.025532755635 35.4019581386333 -887.746841014667 -1265.65976349946 377.912922484796 0.358384261604393
492000 134.547962486051 -46.3952135426411 -921.060489370141 -1281.61515435826 360.554664988115 0.359342855895743
  492000    134.54796   -46.395214   -1281.6152   -1281.6152            0    360.55466   -921.06049   0.35934286 
493000 137.231374585904 -8.52247249729199 -930.635696365323 -1298.38123019166 367.745533826338 0.365873346157307
494000 134.404180726351 -121.786070544131 -932.374412695649 -1292.54377876699 360.16936607134 0.359019661373791
  494000    134.40418   -121.78607   -1292.5438   -1292.5438            0    360.16937   -932.37441   0.35901966 
495000 137.600096786751 40.3414238292317 -918.078137570951 -1286.8117540642 368.733616493246 0.363054402973165
496000 138.715768716512 2.63878996433157 -934.697931158738 -1306.42126753654 371.723336377806 0.366306317070925
  496000    138.71577      2.63879   -1306.4213   -1306.4213            0    371.72334   -934.69793   0.36630632 
497000 138.656007334585 21.6521770593783 -876.674483502582 -1248.23767442265 371.563190920069 0.35303285147661
498000 138.022462885514 97.0495214129739 -909.706673420447 -1279.57212472135 369.865451300907 0.363399897670213
  498000    138.02246    97.049521   -1279.5721   -1279.5721            0    369.86545   -909.70667    0.3633999 
499000 136.271417378249 -79.4051384731494 -901.183623396186 -1266.35671358968 365.173090193497 0.354604671729773
500000 139.294617804857 -61.9305159321635 -929.239529394408 -1302.51403559501 373.274506200599 0.363458722427858
  500000    139.29462   -61.930516    -1302.514    -1302.514            0    373.27451   -929.23953   0.36345872 
501000 142.461898310466 -124.8609268166 -882.170480471626 -1263.93250101672 381.762020545097 0.354423743006665
502000 145.063758265224 100.905216565433 -882.393503602741 -1271.12785376919 388.734350166448 0.362323057352232
  502000    145.06376    100.90522   -1271.1279   -1271.1279            0    388.73435    -882.3935   0.36232306 
503000 134.10093431417 -10.025277914581 -897.470881110301 -1256.82762314384 359.356742033542 0.355675809607803
504000 141.696262435626 29.0402770019624 -922.372515183017 -1302.0828243439 379.71030916088 0.367230040711657
  504000    141.69626    29.040277   -1302.0828   -1302.0828            0    379.71031   -922.37252   0.36723004 
505000 139.681793854764 23.4324794714429 -898.757538965908 -1273.06957950286 374.312040536954 0.360724932921197
506000 145.039902973634 20.77334961699 -915.295836984631 -1303.96626097555 388.670423990916 0.367477486604438
  506000     145.0399     20.77335   -1303.9663   -1303.9663            0    388.67042   -915.29584   0.36747749 
507000 138.573610477982 76.9993181301099 -951.810053686058 -1323.15244177508 371.342388089022 0.373580355303798
508000 139.436046926069 53.7004793725301 -955.434205958951 -1329.08770659749 373.653500638538 0.374764350036543
  508000    139.43605    53.700479   -1329.0877   -1329.0877            0     373.6535   -955.43421   0.37476435 
509000 141.010070153318 -22.5296667104794 -914.510720589068 -1292.3822071926 377.871486603531 0.363974529991352
510000 137.598946082266 -68.2200035520748 -911.507277683194 -1280.23781057813 368.730532894933 0.360276210915139
  510000    137.59895   -68.220004   -1280.2378   -1280.2378            0    368.73053   -911.50728   0.36027621 
511000 146.367918476084 78.3030262146544 -888.579967102132 -1280.80913829172 392.229171189591 0.363986280954468
512000 140.56969442612 56.5182521356605 -913.445759717066 -1290.13715024292 376.691390525855 0.363570503725039
  512000    140.56969    56.518252   -1290.1372   -1290.1372            0    376.69139   -913.44576    0.3635705 
513000 142.49413185916 -57.9365598662393 -878.071767830955 -1259.92016617127 381.848398340317 0.353404731977471
514000 134.745366180971 95.1856624723974 -903.77364726752 -1264.85730445867 361.083657191147 0.362684291366774
  514000    134.74537    95.185662   -1264.8573   -1264.8573            0    361.08366   -903.77365   0.36268429 
515000 147.97862631694 10.1147819280838 -885.523380750108 -1282.06884343325 396.545462683145 0.361419588225715
516000 140.464201404899 -88.189794060346 -879.303875058172 -1255.71257084661 376.408695788439 0.353498207470802
  516000     140.4642   -88.189794   -1255.7126   -1255.7126            0     376.4087   -879.30388   0.35349821 
517000 141.420895658429 21.1682133451756 -897.733862149091 -1276.70625767481 378.972395525724 0.359895999146695
518000 147.801061184506 83.6393289326993 -896.400439839329 -1292.47007267225 396.069632832918 0.36504666018733
  518000    147.80106    83.639329   -1292.4701   -1292.4701            0    396.06963   -896.40044   0.36504666 
519000 142.970002764899 -39.8990366804558 -887.298600455012 -1270.42221301505 383.123612560036 0.35720602519705
520000 139.408852423769 45.3957593364699 -925.932471800205 -1299.51309801921 373.580626219001 0.367333609096413
  520000    139.40885    45.395759   -1299.5131   -1299.5131            0    373.58063   -925.93247   0.36733361 
521000 144.608578112751 35.745382655377 -939.019227004949 -1326.53380896122 387.514581956273 0.373562839100648
522000 138.931975186825 37.2366739410688 -929.930967746918 -1302.23368303193 372.30271528501 0.367019021478991
  522000    138.93198    37.236674   -1302.2337   -1302.2337            0    372.30272   -929.93097   0.36701902 
523000 140.198115498973 72.24607060151 -933.787645045356 -1309.48329759705 375.69565255169 0.369491963661958
524000 135.528962946201 12.694170119845 -935.646535356684 -1298.83003459637 363.183499239687 0.367440453257561
  524000    135.52896     12.69417     -1298.83     -1298.83            0     363.1835   -935.64654   0.36744045 
525000 132.240789616698 -15.3108568792946 -942.444154663632 -1296.81617722737 354.37202256374 0.364206599466288
526000 141.097199497047 -21.338906317847 -919.751314874756 -1297.85628618336 378.1049713086 0.363078934154251
  526000     141.0972   -21.338906   -1297.8563   -1297.8563            0    378.10497   -919.75131   0.36307893 
527000 147.53489936165 47.2882772756743 -915.18202266129 -1310.5384088192 395.356386157907 0.369332059058591
528000 138.608639443385 22.5860197165661 -915.225213561809 -1286.66147045904 371.436256897231 0.362216932364666
  528000    138.60864     22.58602   -1286.6615   -1286.6615            0    371.43626   -915.22521   0.36221693 
529000 141.543696867883 -1.00791718256679 -904.980740715508 -1284.28221256551 379.301471850006 0.360953786499074
530000 137.59093128378 -21.6957152930366 -900.582970234155 -1269.29202548699 368.709055252837 0.357998452726213
  530000    137.59093   -21.695715    -1269.292    -1269.292            0    368.70906   -900.58297   0.35799845 
531000 141.590958622867 35.3202505464824 -927.159165160181 -1306.58728661469 379.428121454507 0.36723432581596
532000 138.028033433272 110.755417782238 -910.653700782531 -1280.53407974896 369.880378966429 0.363756974384165
  532000    138.02803    110.75542   -1280.5341   -1280.5341            0    369.88038    -910.6537   0.36375697 
533000 140.159571704082 23.5665756079927 -896.246405557958 -1271.83877044332 375.592364885362 0.359976210755225
534000 142.182772125319 -8.58289283630088 -891.983236293806 -1272.99726893693 381.014032643122 0.358607048661486
  534000    142.18277   -8.5828928   -1272.9973   -1272.9973            0    381.01403   -891.98324   0.35860705 
535000 137.437819995037 155.358402192584 -940.940225847405 -1309.23898139448 368.298755547077 0.372100255115028
536000 149.256700736552 6.17309241287284 -894.179192187592 -1294.14957254083 399.970380353235 0.364654666750613
  536000     149.2567    6.1730924   -1294.1496   -1294.1496            0    399.97038   -894.17919   0.36465467 
537000 135.507930396363 -46.5183879551658 -901.584617022949 -1264.71175432433 363.127137301381 0.35576709559841
538000 139.010346066653 1.14949227089462 -931.090713931697 -1303.6034434436 372.512729511903 0.366359450656266
  538000    139.01035    1.1494923   -1303.6034   -1303.6034            0    372.51273   -931.09071   0.36635945 
539000 133.509993586099 -46.0489119590388 -943.864089408723 -1301.63725906926 357.773169660534 0.36497219651889
540000 136.771888603883 -63.8394335899618 -953.100413078521 -1319.61464015555 366.514227077034 0.369268591524018
  540000    136.77189   -63.839434   -1319.6146   -1319.6146            0    366.51423   -953.10041   0.36926859 
541000 140.529268551008 102.610750487083 -903.843295440471 -1280.42635479885 376.583059358378 0.364785492461855
542000 138.470547619743 -70.2574218334683 -911.255071541405 -1282.32127711797 371.066205576567 0.358961926990568
  542000    138.47055   -70.257422   -1282.3213   -1282.3213            0    371.06621   -911.25507   0.35896193 
543000 139.180674708426 -4.9056596416107 -922.329741322163 -1295.29890871122 372.969167389054 0.366205390862898
544000 137.626474526771 23.4552967524837 -903.702508281256 -1272.50681047676 368.804302195507 0.359726928504593
  544000    137.62647    23.455297   -1272.5068   -1272.5068            0     368.8043   -903.70251   0.35972693 
545000 135.881176463825 37.3768059838315 -947.659335415457 -1311.78667820732 364.127342791864 0.369677878571226
546000 136.408136093892 80.0068974212296 -954.530522629204 -1320.06998455963 365.539461930426 0.373775372454802
  546000    136.40814    80.006897     -1320.07     -1320.07            0    365.53946   -954.53052   0.37377537 
547000 141.260604456752 17.6611152129605 -924.999727111498 -1303.54258257245 378.542855460952 0.367325741940134
548000 132.370292709442 6.61838651175026 -908.864357600393 -1263.58341584834 354.719058247943 0.356990096062202
  548000    132.37029    6.6183865   -1263.5834   -1263.5834            0    354.71906   -908.86436    0.3569901 
549000 139.155088721385 7.06756106138768 -910.330240915257 -1283.2308443007 372.900603385441 0.362140299032383
550000 141.269500945081 76.6704670811812 -897.802793090147 -1276.3694889 378.566695809849 0.363951476786264
  550000     141.2695    76.670467   -1276.3695   -1276.3695            0     378.5667   -897.80279   0.36395148 
551000 136.55510051486 -108.272531995449 -925.904819727277 -1291.83810930539 365.933289578115 0.35960991354563
552000 136.987731096046 -29.4233052625891 -935.598610824874 -1302.69124143931 367.092630614435 0.365118615697291
  552000    136.98773   -29.423305   -1302.6912   -1302.6912            0    367.09263   -935.59861   0.36511862 
553000 145.065296715983 -27.0523405327804 -897.660357711379 -1286.39883053853 388.738472827153 0.362735260350957
554000 141.303495997986 -23.4926410783553 -926.701477566993 -1305.35927155986 378.657793992867 0.365833176656933
  554000     141.3035   -23.492641   -1305.3593   -1305.3593            0    378.65779   -926.70148   0.36583318 
555000 138.647122955911 55.5075509340562 -957.927507325771 -1329.46689034777 371.539383021998 0.374261479421904
556000 137.966541568245 -79.5168310828581 -924.281754727865 -1293.99735097753 369.71559624966 0.363226847733866
  556000    137.96654   -79.516831   -1293.9974   -1293.9974            0     369.7156   -924.28175   0.36322685 
557000 149.399002719528 26.7344105372138 -923.989271357615 -1324.34098519856 400.351713840945 0.371685084624655
558000 145.204115170572 23.0418924780646 -902.533099248238 -1291.64357058406 389.110471335818 0.364127907467447
  558000    145.20412    23.041892   -1291.6436   -1291.6436            0    389.11047    -902.5331   0.36412791 
559000 137.768833936846 70.9816461191012 -916.219696406759 -1285.40548598014 369.185789573382 0.363822062342726
560000 137.571675090034 12.5496181895501 -935.946308887251 -1304.60376238888 368.657453501632 0.366781737988888
  560000    137.57168    12.549618   -1304.6038   -1304.6038            0    368.65745   -935.94631   0.36678174 
561000 144.203298161239 32.3443502206074 -895.469081847032 -1281.89761556858 386.428533721548 0.363899596118929
562000 142.861616128083 48.365105762748 -901.916124265683 -1284.74928792702 382.833163661334 0.361316287808675
  562000    142.86162    48.365106   -1284.7493   -1284.7493            0    382.83316   -901.91612   0.36131629 
563000 132.90293929909 18.6692466008681 -920.929082808354 -1277.07549981476 356.146417006404 0.362222475616112
564000 146.652870721446 0.0838070693213774 -897.971404435507 -1290.96417590165 392.992771466145 0.3629426473769
  564000    146.65287  0.083807069   -1290.9642   -1290.9642            0    392.99277    -897.9714   0.36294265 
565000 143.512038985334 154.253551963076 -894.797056913679 -1279.3731900787 384.576133165024 0.366926682161163
566000 141.797145808921 15.6680123211027 -916.204378056415 -1296.18502925882 379.980651202404 0.366702940804465
  566000    141.79715    15.668012    -1296.185    -1296.185            0    379.98065   -916.20438   0.36670294 
567000 141.84943537009 42.0536774136991 -887.283593079899 -1267.40436714155 380.120774061654 0.357292508800019
568000 140.72940535113 52.8653637807125 -907.450658436528 -1284.57003403178 377.119375595253 0.364377714402225
  568000    140.72941    52.865364     -1284.57     -1284.57            0    377.11938   -907.45066   0.36437771 
569000 140.857864051576 18.5381711501535 -902.127008608956 -1279.59062117999 377.463612571038 0.361061640337563
570000 144.266109670792 61.9600582843036 -890.365813079825 -1276.96266583323 386.596852753408 0.363070854137764
  570000    144.26611    61.960058   -1276.9627   -1276.9627            0    386.59685   -890.36581   0.36307085 
571000 139.575456757138 30.4902238286996 -877.594558695181 -1251.62164258246 374.027083887281 0.355662048635589
572000 142.661185992424 -4.36258086933571 -907.242988185469 -1289.53904954454 382.296061359071 0.362432439394385
  572000    142.66119   -4.3625809    -1289.539    -1289.539            0    382.29606   -907.24299   0.36243244 
573000 146.231194753874 -32.5295861952339 -934.392517490803 -1326.25530352713 391.862786036322 0.370317240063016
574000 142.538814579563 118.741982735929 -894.296509691004 -1276.26464647245 381.96813678145 0.363939664997667
  574000    142.53881    118.74198   -1276.2646   -1276.2646            0    381.96814   -894.29651   0.36393966 
575000 138.448182207964 -32.2902435042449 -949.471569279542 -1320.47784118337 371.006271903828 0.370781300054963
576000 145.829564969892 131.425855647999 -899.570998901778 -1290.35751823337 390.786519331595 0.366310108446928
  576000    145.82956    131.42586   -1290.3575   -1290.3575            0    390.78652     -899.571   0.36631011 
577000 139.251507181304 -26.9609367851159 -948.331546217403 -1321.49052680063 373.158980583226 0.370329072853336
578000 139.232779423753 102.394918040438 -917.570352119301 -1290.67914702728 373.108794907984 0.367482076986896
  578000    139.23278    102.39492   -1290.6791   -1290.6791            0    373.10879   -917.57035   0.36748208 
579000 136.267253742856 -57.2597356710599 -916.348108289152 -1281.51004098805 365.161932698901 0.360263361163815
580000 138.9085545183 4.50973565442083 -956.432989842402 -1328.67294363227 372.239953789871 0.372714010663713
  580000    138.90855    4.5097357   -1328.6729   -1328.6729            0    372.23995   -956.43299   0.37271401 
581000 144.436885533914 33.0233175289142 -878.015691405737 -1265.07018047692 387.054489071181 0.357897292055499
582000 142.824058897182 29.4451481730302 -891.357973950011 -1274.09049368813 382.732519738119 0.358207277300274
  582000    142.82406    29.445148   -1274.0905   -1274.0905            0    382.73252   -891.35797   0.35820728 
583000 138.766916620768 -15.7064778537107 -891.077027036029 -1262.93742691998 371.860399883956 0.357998852947159
584000 139.691313669724 -22.0258682944002 -920.431187914704 -1294.76873915899 374.337551244289 0.363994905710512
  584000    139.69131   -22.025868   -1294.7687   -1294.7687            0    374.33755   -920.43119   0.36399491 
585000 134.229268393196 -85.7225922647913 -949.539068246618 -1309.23971330192 359.700645055297 0.365025868721996
586000 151.037877654883 33.114462701345 -878.312664416596 -1283.05615047286 404.743486056267 0.361647068599012
  586000    151.03788    33.114463   -1283.0562   -1283.0562            0    404.74349   -878.31266   0.36164707 
587000 136.763251349295 -10.6476324504725 -911.830759649727 -1278.32184105902 366.491081409297 0.358123791724589
588000 140.692549951503 39.4517379955237 -924.647958489468 -1301.66857089262 377.020612403154 0.368039532434792
  588000    140.69255    39.451738   -1301.6686   -1301.6686            0    377.02061   -924.64796   0.36803953 
589000 139.9979463303 118.07614034229 -914.882628026212 -1290.04187760146 375.159249575245 0.366674790117728
590000 130.92093473822 14.7848080650161 -950.672903441312 -1301.50804722406 350.835143782749 0.367494523238152
  590000    130.92093    14.784808    -1301.508    -1301.508            0    350.83514    -950.6729   0.36749452 
591000 138.679581593345 -86.3001968395284 -914.873447577737 -1286.49981157611 371.62636399837 0.360289305275862
592000 142.804858628771 17.0438122401959 -931.395390667198 -1314.07645851993 382.681067852733 0.368411639902788
  592000    142.80486    17.043812   -1314.0765   -1314.0765            0    382.68107   -931.39539   0.36841164 
593000 140.036279987775 64.5958829093576 -914.492533891897 -1289.7545080181 375.261974126204 0.364084133800643
594000 139.571777205019 83.1560376322846 -928.275794119028 -1302.29301773301 374.017223613985 0.370012057643144
  594000    139.57178    83.156038    -1302.293    -1302.293            0    374.01722   -928.27579   0.37001206 
595000 136.651103304837 35.8192323852603 -941.165893286637 -1307.35644617175 366.190552885108 0.36797396501123
596000 138.688205468548 2.80408209413409 -902.49398223063 -1274.14345604335 371.649473812724 0.358264702072014
  596000    138.68821    2.8040821   -1274.1435   -1274.1435            0    371.64947   -902.49398    0.3582647 
597000 144.28091507837 32.9839671011605 -886.721389008682 -1273.35791652691 386.636527518233 0.360813446028875
598000 143.946097620049 22.1252371762555 -903.821532804889 -1289.56083383016 385.739301025267 0.364247247945577
  598000     143.9461    22.125237   -1289.5608   -1289.5608            0     385.7393   -903.82153   0.36424725 
599000 136.763514562322 41.1934391553982 -915.659659768595 -1282.15144652254 366.491786753942 0.362382083012667
600000 144.244509010063 -12.3916857363102 -874.893478021709 -1261.43244644265 386.538968420944 0.355010940463826
  600000    144.24451   -12.391686   -1261.4324   -1261.4324            0    386.53897   -874.89348   0.35501094 
601000 141.762799880502 -57.3371561931734 -891.226251349162 -1271.11486411051 379.888612761346 0.357103491949958
602000 144.329450951373 44.7899249698766 -884.369865634674 -1271.13645707292 386.766591438245 0.359830120325158
  602000    144.32945    44.789925   -1271.1365   -1271.1365            0    386.76659   -884.36987   0.35983012 
603000 148.672960970406 -31.4159192105589 -899.427294195829 -1297.83339894106 398.406104745235 0.362694234713752
604000 141.4654197207 -17.0286985313223 -928.037709024433 -1307.12941782744 379.091708803007 0.3668247306782
  604000    141.46542   -17.028699   -1307.1294   -1307.1294            0    379.09171   -928.03771   0.36682473 
605000 143.98297788394 -76.4568445016639 -918.195854465586 -1304.03398531292 385.838130847333 0.364492992651058
606000 136.601796097827 60.3753822253046 -920.706712907338 -1286.76513489149 366.058421984152 0.364537329355483
  606000     136.6018    60.375382   -1286.7651   -1286.7651            0    366.05842   -920.70671   0.36453733 
607000 135.447614651846 -29.6432221155352 -907.588391262245 -1270.55389755372 362.965506291472 0.358046193119499
608000 134.708468097387 -15.0022301213521 -936.769329637438 -1297.75410925423 360.984779616792 0.365654364053725
  608000    134.70847    -15.00223   -1297.7541   -1297.7541            0    360.98478   -936.76933   0.36565436 
609000 141.708732544016 154.169752360623 -900.625095274875 -1280.3688211867 379.743725911829 0.365228048763435
610000 144.013765762591 44.7132294961982 -924.002707550428 -1309.92334216123 385.920634610806 0.368407802622143
  610000    144.01377    44.713229   -1309.9233   -1309.9233            0    385.92063   -924.00271    0.3684078 
611000 136.607349856529 37.183601679067 -934.102862824808 -1300.17616748404 366.073304659231 0.367676958897913
612000 140.198902109498 -18.746368031118 -867.216697706042 -1242.9144581759 375.697760469856 0.351668525575362
  612000     140.1989   -18.746368   -1242.9145   -1242.9145            0    375.69776    -867.2167   0.35166853 
613000 139.730597782007 169.790883403767 -937.017502950483 -1311.46032572532 374.442822774841 0.374789417551293
614000 140.009502869882 43.0441728170159 -937.089682940539 -1312.27990113233 375.190218191794 0.369522068622537
  614000     140.0095    43.044173   -1312.2799   -1312.2799            0    375.19022   -937.08968   0.36952207 
615000 141.08046778604 8.35457612760122 -874.861017704676 -1252.92115224024 378.060134535561 0.354346516276576
616000 147.785272693427 10.4072552185031 -885.436511768057 -1281.46383541987 396.027323651815 0.361874288455768
  616000    147.78527    10.407255   -1281.4638   -1281.4638            0    396.02732   -885.43651   0.36187429 
617000 143.751840143815 72.891085214682 -897.831903993874 -1283.05064389008 385.218739896203 0.362213365867456
618000 143.432103204288 -3.3773352255522 -889.804793120349 -1274.16671851721 384.361925396856 0.35812190301052
  618000     143.4321   -3.3773352   -1274.1667   -1274.1667            0    384.36193   -889.80479    0.3581219 
619000 141.325751074462 22.4624875549826 -893.56829134224 -1272.28572333701 378.717431994774 0.360614729301641
620000 138.352946910657 100.205672097935 -910.078362974236 -1280.8294282582 370.751065283963 0.364513150013466
  620000    138.35295    100.20567   -1280.8294   -1280.8294            0    370.75107   -910.07836   0.36451315 
621000 138.841410571479 -31.6905212968324 -908.422175147432 -1280.48220006432 372.060024916889 0.36061722890369
622000 150.937837752936 53.5562927247717 -866.102631243479 -1270.57803554908 404.4754043056 0.359906800359212
  622000    150.93784    53.556293    -1270.578    -1270.578            0     404.4754   -866.10263    0.3599068 
623000 138.424515748892 -18.4546443237866 -921.264434939763 -1292.20728669167 370.942851751902 0.363735452949862
624000 139.430062662243 137.774297977808 -938.686712237752 -1312.32417655587 373.637464318114 0.373337466195629
  624000    139.43006     137.7743   -1312.3242   -1312.3242            0    373.63746   -938.68671   0.37333747 
625000 143.279168393875 21.7938821996801 -931.504065414781 -1315.45616402337 383.952098608591 0.369766580678842
626000 143.713024837094 4.77933015142013 -891.678377577068 -1276.7931022236 385.114724646529 0.360598479678216
  626000    143.71302    4.7793302   -1276.7931   -1276.7931            0    385.11472   -891.67838   0.36059848 
627000 135.404008997969 -34.5841914656315 -908.392471969869 -1271.24112608733 362.848654117461 0.357063677088842
628000 143.159963345407 -8.79279619522177 -880.82881985556 -1264.46147894592 383.632659090361 0.35521892299566
  628000    143.15996   -8.7927962   -1264.4615   -1264.4615            0    383.63266   -880.82882   0.35521892 
629000 144.738983624425 -60.035112843096 -861.358788563032 -1249.22282445904 387.864035896009 0.350768274888117
630000 139.360473683712 -11.6775446232332 -947.851807086489 -1321.30279046221 373.450983375723 0.370438284387696
  630000    139.36047   -11.677545   -1321.3028   -1321.3028            0    373.45098   -947.85181   0.37043828 
631000 137.247258029212 7.75741416390747 -933.815806578328 -1301.60390403384 367.788097455507 0.367685512945911
632000 133.970824693593 -48.3651806131133 -938.621555819288 -1297.62963682674 359.008081007451 0.363382219431195
  632000    133.97082   -48.365181   -1297.6296   -1297.6296            0    359.00808   -938.62156   0.36338222 
633000 137.125019229181 -45.8168348543832 -915.681914780528 -1283.14244302741 367.460528246884 0.360233536975563
634000 141.256204994441 111.948961168826 -909.029495231433 -1287.56056124102 378.531066009588 0.367385337075138
  634000     141.2562    111.94896   -1287.5606   -1287.5606            0    378.53107    -909.0295   0.36738534 
635000 139.858258120071 13.3116463823476 -867.931640118997 -1242.71656045944 374.784920340443 0.351730878161233
636000 134.087502005963 -18.0085768853081 -929.96257867275 -1289.28332550208 359.320746829334 0.363374060227679
  636000     134.0875   -18.008577   -1289.2833   -1289.2833            0    359.32075   -929.96258   0.36337406 
637000 137.790805637071 44.9498236324778 -893.186511717977 -1262.43117991626 369.244668198281 0.357158449801008
638000 134.074233831904 38.5601811187079 -943.506371766157 -1302.79156322947 359.285191463318 0.368268675829922
  638000    134.07423    38.560181   -1302.7916   -1302.7916            0    359.28519   -943.50637   0.36826868 
639000 143.735177605254 67.991210614918 -914.91076794308 -1300.08485643098 385.174088487903 0.367605253820301
640000 137.375741198188 98.653098054389 -927.221269351781 -1295.35366935257 368.132400000792 0.368206506482329
  640000    137.37574    98.653098   -1295.3537   -1295.3537            0     368.1324   -927.22127   0.36820651 
641000 139.686014145146 37.6082078870442 -908.711841763061 -1283.03519161572 374.323349852655 0.36319815100721
642000 137.478041905041 -75.5212049592531 -911.499751474272 -1279.90629161369 368.406540139417 0.359635692619717
  642000    137.47804   -75.521205   -1279.9063   -1279.9063            0    368.40654   -911.49975   0.35963569 
643000 138.106745945481 44.6639674292821 -889.327046839149 -1259.41835552124 370.091308682092 0.35641099616825
644000 139.608706291107 63.1345322455193 -915.872894710299 -1289.98907897754 374.116184267246 0.365324447191454
  644000    139.60871    63.134532   -1289.9891   -1289.9891            0    374.11618   -915.87289   0.36532445 
645000 146.748282929241 28.9413604695557 -934.2514448221 -1327.49989698368 393.248452161576 0.373013490871165
646000 142.533576072002 82.3431562118587 -929.420313805319 -1311.37441270538 381.954098900058 0.370958590088646
  646000    142.53358    82.343156   -1311.3744   -1311.3744            0     381.9541   -929.42031   0.37095859 
647000 142.133427155259 54.6945720855932 -917.27045369652 -1298.15225424322 380.881800546698 0.36515942832395
648000 143.076676916281 113.60458358617 -929.247066413137 -1312.65653884205 383.409472428915 0.372042493594868
  648000    143.07668    113.60458   -1312.6565   -1312.6565            0    383.40947   -929.24707   0.37204249 
649000 146.217692749182 30.1233184827718 -874.924215528564 -1266.75081959165 391.826604063083 0.358067311594525
650000 134.248694397105 -11.0170062382497 -947.333958735356 -1307.08666059034 359.752701854985 0.367071878607762
  650000    134.24869   -11.017006   -1307.0867   -1307.0867            0     359.7527   -947.33396   0.36707188 
651000 143.372019700899 43.5177358480162 -895.85123686581 -1280.05215360051 384.200916734702 0.362376496066643
652000 134.481942630134 -44.6731775751337 -916.381542273263 -1276.75929066901 360.377748395749 0.360331607791769
  652000    134.48194   -44.673178   -1276.7593   -1276.7593            0    360.37775   -916.38154   0.36033161 
653000 135.006110133316 -47.9296614684377 -920.665192632306 -1282.44757796952 361.782385337219 0.360375371592963
654000 135.989245274594 65.6102051249157 -929.315938497279 -1293.73287849406 364.416939996776 0.367216027601672
  654000    135.98925    65.610205   -1293.7329   -1293.7329            0    364.41694   -929.31594   0.36721603 
[...]
3091000 136.45469863163 21.5334735235344 -887.711575188058 -1253.3758129968 365.664237808745 0.355948418907899
3092000 143.314982530239 135.868909534146 -940.78486345991 -1324.83293493721 384.048071477298 0.37509519881098
 3092000    143.31498    135.86891   -1324.8329   -1324.8329            0    384.04807   -940.78486    0.3750952 
3093000 141.061792673593 -28.9922147938993 -888.261986615593 -1266.27207655154 378.010089935944 0.35512507023364
3094000 137.395445596196 15.0149755221785 -942.819832141709 -1311.00503496828 368.185202826576 0.369121286682738
 3094000    137.39545    15.014976    -1311.005    -1311.005            0     368.1852   -942.81983   0.36912129 
3095000 132.469842930298 103.237535286391 -961.29851314756 -1316.28434092413 354.98582777657 0.373203489953683
3096000 138.908104344994 116.092370332723 -954.423802586534 -1326.66255002528 372.238747438748 0.374623225292174
 3096000     138.9081    116.09237   -1326.6626   -1326.6626            0    372.23875    -954.4238   0.37462323 
3097000 145.569085602146 -13.0821752889104 -920.146799910888 -1310.23530011652 390.088500205635 0.368474600481655
3098000 137.415358606769 -5.17915352104642 -937.766738092219 -1306.00530277373 368.238564681511 0.368820847932202
 3098000    137.41536   -5.1791535   -1306.0053   -1306.0053            0    368.23856   -937.76674   0.36882085 
3099000 144.796064886144 60.9412558170295 -903.252329443179 -1291.26932874953 388.016999306349 0.365808194807929
3100000 142.843060588681 53.1986110233427 -926.739114694383 -1309.52255418176 382.783439487374 0.368230492304224
 3100000    142.84306    53.198611   -1309.5226   -1309.5226            0    382.78344   -926.73911   0.36823049 
3101000 136.730656057661 -14.0743097136279 -920.637105986984 -1287.04084022106 366.403734234072 0.361832125010575
3102000 135.893719795134 -22.7272041234697 -915.095751305226 -1279.25670706703 364.160955761801 0.359672625643433
 3102000    135.89372   -22.727204   -1279.2567   -1279.2567            0    364.16096   -915.09575   0.35967263 
3103000 143.78876368975 -19.9623580690458 -908.071468593075 -1293.38915429633 385.317685703251 0.363579547711216
3104000 134.500664845197 -19.33223647924 -941.077529942559 -1301.50544916108 360.427919218519 0.36577178425066
 3104000    134.50066   -19.332236   -1301.5054   -1301.5054            0    360.42792   -941.07753   0.36577178 
3105000 142.311273296042 128.031034473356 -954.719847112366 -1336.07823054092 381.358383428557 0.378545718667634
3106000 146.753937334526 3.66220300232694 -881.047478848886 -1274.31108339305 393.26360454416 0.36009648696255
 3106000    146.75394     3.662203   -1274.3111   -1274.3111            0     393.2636   -881.04748   0.36009649 
3107000 136.657139961914 24.1200006386769 -936.848547779118 -1303.05527738537 366.206729606255 0.367409640556921
3108000 139.507849554441 -1.09149627660896 -898.753191487712 -1272.5991050929 373.845913605184 0.357591338646996
 3108000    139.50785   -1.0914963   -1272.5991   -1272.5991            0    373.84591   -898.75319   0.35759134 
3109000 137.930612298838 -82.5411082603011 -937.351275152404 -1306.97059000579 369.619314853383 0.3646071371421
3110000 139.749133604076 51.3484556789413 -896.962648052694 -1271.45514216401 374.492494111314 0.361659582623647
 3110000    139.74913    51.348456   -1271.4551   -1271.4551            0    374.49249   -896.96265   0.36165958 
3111000 138.223337096404 -18.5538298482432 -924.909726024125 -1295.31346963711 370.403743612987 0.365734468058608
3112000 139.452220203834 -108.971426943254 -880.467308192813 -1254.1641491439 373.696840951084 0.351375181967267
 3112000    139.45222   -108.97143   -1254.1641   -1254.1641            0    373.69684   -880.46731   0.35137518 
3113000 142.818682443508 1.53902451354216 -897.132584917489 -1279.85069711336 382.718112195876 0.359960075372476
3114000 141.692978720384 57.0529010573489 -897.685093470336 -1277.38660310109 379.701509630756 0.362998484141092
 3114000    141.69298    57.052901   -1277.3866   -1277.3866            0    379.70151   -897.68509   0.36299848 
3115000 145.261110319983 -19.0387349369674 -886.514441596649 -1275.7776455835 389.263203986851 0.359476767234535
3116000 139.307846839707 3.11229658172238 -921.429656029476 -1294.73961271287 373.30995668339 0.3656323096929
 3116000    139.30785    3.1122966   -1294.7396   -1294.7396            0    373.30996   -921.42966   0.36563231 
3117000 138.426993487267 -57.3805913618593 -923.17469888499 -1294.12419035193 370.949491466938 0.363205882066152
3118000 133.288146344313 55.2994553367246 -931.523952813849 -1288.70262771978 357.178674905931 0.365023610109321
 3118000    133.28815    55.299455   -1288.7026   -1288.7026            0    357.17867   -931.52395   0.36502361 
3119000 138.956416875221 -45.6474119702906 -944.428064954847 -1316.7962778112 372.368212856349 0.369457894197972
3120000 138.514284521693 78.5943353135845 -922.960437245952 -1294.14384670832 371.183409462368 0.368188283816435
 3120000    138.51428    78.594335   -1294.1438   -1294.1438            0    371.18341   -922.96044   0.36818828 
3121000 139.662602560979 130.935652476843 -900.2507659743 -1274.51137867561 374.260612701308 0.365295025957584
3122000 141.225443027501 42.6671696405294 -900.133982419607 -1278.58261410258 378.448631682977 0.361741542487775
 3122000    141.22544     42.66717   -1278.5826   -1278.5826            0    378.44863   -900.13398   0.36174154 
3123000 141.16134721791 1.20690711932437 -916.40535784527 -1294.68222889563 378.276871050358 0.362840415262795
3124000 138.346050432475 64.229496454238 -937.171715132588 -1307.90429959132 370.73258445873 0.368932520154353
 3124000    138.34605    64.229496   -1307.9043   -1307.9043            0    370.73258   -937.17172   0.36893252 
3125000 139.944856352887 165.791272354296 -897.339183589714 -1272.3561653917 375.016981801981 0.364635343130585
3126000 140.156938893804 68.6959564234082 -911.351684130688 -1286.93699374735 375.585309616667 0.36381138952399
 3126000    140.15694    68.695956    -1286.937    -1286.937            0    375.58531   -911.35168   0.36381139 
3127000 145.148039879251 136.549768041051 -934.072058720509 -1323.03226239338 388.960203672876 0.374441403402466
3128000 140.120440596459 12.8164166063323 -904.310939326194 -1279.79844269497 375.487503368778 0.3627814146289
 3128000    140.12044    12.816417   -1279.7984   -1279.7984            0     375.4875   -904.31094   0.36278141 
3129000 140.118466628511 37.7063250700937 -888.556810364408 -1264.03902399606 375.482213631652 0.358394806482395
3130000 132.843029607835 96.6268620058395 -950.282868322161 -1306.26874243917 355.985874117006 0.37074951882379
 3130000    132.84303    96.626862   -1306.2687   -1306.2687            0    355.98587   -950.28287   0.37074952 
3131000 134.464322037195 -28.2061536578966 -935.547903791497 -1295.87843343442 360.330529642923 0.364756226373178
3132000 139.473200425673 76.7950440241218 -902.825342202433 -1276.57840486596 373.753062663525 0.363648655344879
 3132000     139.4732    76.795044   -1276.5784   -1276.5784            0    373.75306   -902.82534   0.36364866 
3133000 135.157516398433 13.5763561927034 -926.785870392383 -1288.97398640131 362.188116008926 0.364867859058075
3134000 135.990068796827 -70.9045146682387 -909.306483172614 -1273.72563000164 364.419146829026 0.357876147438152
 3134000    135.99007   -70.904515   -1273.7256   -1273.7256            0    364.41915   -909.30648   0.35787615 
3135000 140.413295216534 38.7941388993678 -908.706799739165 -1284.97907975918 376.27228002002 0.363875702747373
3136000 135.069471821359 52.0754707069283 -912.243597418592 -1274.19577612751 361.952178708916 0.36195345761506
 3136000    135.06947    52.075471   -1274.1958   -1274.1958            0    361.95218    -912.2436   0.36195346 
3137000 142.334707303635 27.9883348763217 -930.131270009288 -1311.55245067833 381.421180669041 0.368804204536982
3138000 140.04000633666 -28.3618021202204 -948.247894245694 -1323.51985404875 375.271959803052 0.369897954303631
 3138000    140.04001   -28.361802   -1323.5199   -1323.5199            0    375.27196   -948.24789   0.36989795 
3139000 141.68645444183 43.5338900589575 -908.359918562168 -1288.04394476899 379.684026206818 0.364177445962659
3140000 135.326779181682 42.6819241618147 -900.070408653427 -1262.71210630701 362.64169765358 0.356136539937092
 3140000    135.32678    42.681924   -1262.7121   -1262.7121            0     362.6417   -900.07041   0.35613654 
3141000 140.265614512875 103.637584062387 -904.044430157229 -1279.92096307228 375.876532915053 0.364399034239342
3142000 138.508691309067 7.01611342735508 -934.99959142631 -1306.16801248702 371.168421060707 0.366531607736995
 3142000    138.50869    7.0161134    -1306.168    -1306.168            0    371.16842   -934.99959   0.36653161 
3143000 139.482336962834 -11.471590155887 -903.970846791727 -1277.74839307458 373.777546282856 0.359775414798458
3144000 142.990751982777 -3.90406906864831 -898.143683038705 -1281.32289827873 383.179215240021 0.360597692434148
 3144000    142.99075   -3.9040691   -1281.3229   -1281.3229            0    383.17922   -898.14368   0.36059769 
3145000 138.901455628595 123.253008582452 -912.306217681028 -1284.52714823374 372.220930552714 0.36553365959675
3146000 136.437115107297 13.2079672443317 -908.356820706451 -1273.9739390969 365.617118390449 0.360971211088429
 3146000    136.43712    13.207967   -1273.9739   -1273.9739            0    365.61712   -908.35682   0.36097121 
3147000 135.828127701908 -46.9470344571075 -933.441120078182 -1297.42630554393 363.985185465752 0.363681996878565
3148000 141.492658162127 -22.1723827412727 -901.995472578568 -1281.16017354691 379.164700968343 0.360657853346237
 3148000    141.49266   -22.172383   -1281.1602   -1281.1602            0     379.1647   -901.99547   0.36065785 
3149000 140.647762327566 42.6552984023407 -914.036503518674 -1290.93709636564 376.900592846961 0.363800324113097
3150000 146.882546482315 45.2119600421944 -864.556920191293 -1258.16516487224 393.608244680946 0.356415027528404
 3150000    146.88255     45.21196   -1258.1652   -1258.1652            0    393.60824   -864.55692   0.35641503 
3151000 136.631234872221 73.0004485094608 -943.634729195528 -1309.7720396834 366.137310487872 0.369970242784947
3152000 135.164725348959 -66.0432007492286 -919.921395742188 -1282.12882992356 362.207434181375 0.358875815293947
 3152000    135.16473   -66.043201   -1282.1288   -1282.1288            0    362.20743    -919.9214   0.35887582 
3153000 140.362732905858 1.87198414603937 -935.928649311634 -1312.06543506886 376.136785757231 0.368937476989965
3154000 136.419235317317 -27.0542596832035 -902.325688500794 -1267.8948935556 365.569205054808 0.357864530311034
 3154000    136.41924    -27.05426   -1267.8949   -1267.8949            0    365.56921   -902.32569   0.35786453 
3155000 139.395031058932 -34.2094549478895 -922.25457298901 -1295.79816142998 373.543588440974 0.362561700236413
3156000 132.876461823331 12.4072328948551 -944.233007902995 -1300.30847194047 356.075464037473 0.365020025344881
 3156000    132.87646    12.407233   -1300.3085   -1300.3085            0    356.07546   -944.23301   0.36502003 
3157000 141.744366970619 -31.1407812222661 -915.298013027923 -1295.13723023154 379.839217203622 0.361675322276627
3158000 134.341880506416 -58.8859613668444 -940.085346669854 -1300.08776383679 360.002417166931 0.364951190333973
 3158000    134.34188   -58.885961   -1300.0878   -1300.0878            0    360.00242   -940.08535   0.36495119 
3159000 137.613812275403 37.5104094394416 -957.85489503299 -1326.62526558274 368.770370549751 0.373017875996011
3160000 143.485023865026 160.981897120549 -904.026024947507 -1288.52976439157 384.503739444062 0.368398764323129
 3160000    143.48502     160.9819   -1288.5298   -1288.5298            0    384.50374   -904.02602   0.36839876 
3161000 148.472955626075 22.5324818701232 -891.871007058222 -1289.74114783501 397.870140776785 0.365105383002729
3162000 135.228947826678 86.7729719101989 -944.473343655694 -1306.85287790838 362.379534252685 0.370929444887651
 3162000    135.22895    86.772972   -1306.8529   -1306.8529            0    362.37953   -944.47334   0.37092944 
3163000 141.599129895433 18.4794900326572 -886.551206311006 -1266.00122471875 379.450018407742 0.358077404998558
3164000 135.778205612122 -36.1187631768977 -936.755142964067 -1300.60654979783 363.851406833762 0.364814341091917
 3164000    135.77821   -36.118763   -1300.6065   -1300.6065            0    363.85141   -936.75514   0.36481434 
3165000 134.312511057133 -48.7702602092049 -915.473353394741 -1275.3970678318 359.923714437055 0.358624221421869
3166000 146.831056849669 -56.4689582020755 -913.321780298842 -1306.79204572758 393.470265428742 0.364895584124429
 3166000    146.83106   -56.468958    -1306.792    -1306.792            0    393.47027   -913.32178   0.36489558 
3167000 142.611440817012 43.3795312999576 -883.633168495262 -1265.79592530833 382.162756813066 0.358825796192028
3168000 141.394155555814 -28.4190139037081 -898.998937742363 -1277.8996765253 378.900738782938 0.359824996040651
 3168000    141.39416   -28.419014   -1277.8997   -1277.8997            0    378.90074   -898.99894     0.359825 
3169000 144.565188685895 68.1654330811228 -891.488577400185 -1278.88688661642 387.39830921624 0.36141581513889
3170000 134.295278264926 22.7950678880432 -940.466080953038 -1300.34361584559 359.877534892553 0.366355697765435
 3170000    134.29528    22.795068   -1300.3436   -1300.3436            0    359.87753   -940.46608    0.3663557 
3171000 138.975596641926 -15.9604557022441 -904.618248239036 -1277.03785804136 372.419609802324 0.358626927181605
3172000 144.831648859371 -65.7798993407715 -897.956352010583 -1286.06870740638 388.112355395797 0.360348161306522
 3172000    144.83165   -65.779899   -1286.0687   -1286.0687            0    388.11236   -897.95635   0.36034816 
3173000 140.102312557934 -7.5651122994772 -895.853796617928 -1271.29272140747 375.438924789538 0.358099825553724
3174000 136.353649304475 -27.44741308668 -943.05743825684 -1308.4508893095 365.393451052657 0.36613472339063
 3174000    136.35365   -27.447413   -1308.4509   -1308.4509            0    365.39345   -943.05744   0.36613472 
3175000 140.120932476059 27.4428085004475 -944.702729989691 -1320.19155147196 375.488821482267 0.371117965999074
3176000 141.244072073341 32.2447844457808 -907.838802873884 -1286.33735570957 378.498552835686 0.363454327008173
 3176000    141.24407    32.244784   -1286.3374   -1286.3374            0    378.49855    -907.8388   0.36345433 
3177000 142.716228830301 68.1596685709607 -944.544941522068 -1326.98850382879 382.443562306719 0.373240277807877
3178000 135.124559340496 -37.8064435831589 -920.089040080762 -1282.18883947185 362.09979939109 0.361199773038539
 3178000    135.12456   -37.806444   -1282.1888   -1282.1888            0     362.0998   -920.08904   0.36119977 
3179000 141.403356573688 53.2954611442883 -926.252744399148 -1305.17813959349 378.925395194345 0.368558477960435
3180000 143.862123535358 11.0790316744237 -912.54184205905 -1298.05611367909 385.514271620036 0.364629579446531
 3180000    143.86212    11.079032   -1298.0561   -1298.0561            0    385.51427   -912.54184   0.36462958 
3181000 138.194622320534 38.7211164193423 -917.697196304481 -1288.02399154751 370.326795243032 0.363561013883224
3182000 143.451317608387 26.4013455240366 -893.295175070833 -1277.70859023316 384.413415162327 0.36144742629001
 3182000    143.45132    26.401346   -1277.7086   -1277.7086            0    384.41342   -893.29518   0.36144743 
3183000 141.067752276196 -30.7806720429489 -884.255248645894 -1262.28130881639 378.026060170499 0.352642887660121
3184000 139.706995789503 66.6082641566772 -901.379685029228 -1275.75926040632 374.379575377089 0.361518454803393
 3184000      139.707    66.608264   -1275.7593   -1275.7593            0    374.37958   -901.37969   0.36151845 
3185000 145.822092439608 59.5892957759788 -919.291639690168 -1310.05813452192 390.766494831757 0.369244253163243
3186000 136.079964623845 18.6531323554248 -913.720534845238 -1278.38057985805 364.660045012807 0.359847370851116
 3186000    136.07996    18.653132   -1278.3806   -1278.3806            0    364.66005   -913.72053   0.35984737 
3187000 139.747123043654 24.4854881539683 -888.550276018184 -1263.03738233376 374.487106315572 0.358141175238678
3188000 136.763991426196 -33.8062026415085 -922.270403788491 -1288.76346841756 366.493064629066 0.363195833213333
 3188000    136.76399   -33.806203   -1288.7635   -1288.7635            0    366.49306    -922.2704   0.36319583 
3189000 143.06363794094 86.3416354760484 -903.233626231396 -1286.60815748916 383.374531257759 0.365638011239295
3190000 139.969109130745 40.3023915964514 -894.163821307817 -1269.24579444846 375.081973140639 0.35991613714684
 3190000    139.96911    40.302392   -1269.2458   -1269.2458            0    375.08197   -894.16382   0.35991614 
3191000 142.751076119107 -54.822401332028 -923.480249188932 -1306.01719345632 382.536944267391 0.364351776373061
3192000 137.714643177355 11.5043485499399 -903.212919652906 -1272.25349163419 369.040571981286 0.360018020594237
 3192000    137.71464    11.504349   -1272.2535   -1272.2535            0    369.04057   -903.21292   0.36001802 
3193000 143.579450452699 73.6290791976196 -900.229124915625 -1284.98590384134 384.756778925712 0.365627888178864
3194000 139.852522577134 -61.534916883513 -937.021417537657 -1311.79096806704 374.76955052938 0.366981718144239
 3194000    139.85252   -61.534917    -1311.791    -1311.791            0    374.76955   -937.02142   0.36698172 
3195000 137.687609218597 14.6743933042064 -881.522024746002 -1250.49015252402 368.968127778021 0.354083896411146
3196000 136.071412781701 -77.6936711196845 -937.1162217476 -1301.75334997652 364.637128228917 0.36382964342724
 3196000    136.07141   -77.693671   -1301.7533   -1301.7533            0    364.63713   -937.11622   0.36382964 
3197000 139.668691498076 -0.380347765024526 -927.035520460826 -1301.31244998057 374.276929519745 0.365846923660438
3198000 140.954869651749 -39.9159985147019 -905.501691023126 -1283.22525418001 377.723563156882 0.360683226504613
 3198000    140.95487   -39.915999   -1283.2253   -1283.2253            0    377.72356   -905.50169   0.36068323 
3199000 135.74881098157 56.9418312440099 -917.605070663185 -1281.37770728761 363.772636624423 0.363793824101075
3200000 140.896887253571 -18.5148409030814 -921.95129000813 -1299.51947493584 377.568184927707 0.364345535994635
 3200000    140.89689   -18.514841   -1299.5195   -1299.5195            0    377.56818   -921.95129   0.36434554 
Loop time of 610.901 on 36 procs for 3000000 steps with 900 atoms

Performance: 848.583 ns/day, 0.028 hours/ns, 4910.783 timesteps/s
99.6% CPU use with 36 MPI tasks x 1 OpenMP threads

MPI task timing breakdown:
Section |  min time  |  avg time  |  max time  |%varavg| %total
---------------------------------------------------------------
Pair    | 135.48     | 141.97     | 150.83     |  37.4 | 23.24
Bond    | 0.53366    | 0.59931    | 0.79388    |   6.2 |  0.10
Neigh   | 10.975     | 11.477     | 13.236     |  18.7 |  1.88
Comm    | 317.44     | 330.82     | 350.32     |  56.6 | 54.15
Output  | 0.21134    | 0.21259    | 0.22628    |   0.5 |  0.03
Modify  | 92.27      | 105.04     | 112.87     |  67.2 | 17.19
Other   |            | 20.79      |            |       |  3.40

Nlocal:    25 ave 30 max 21 min
Histogram: 3 3 5 6 3 4 7 2 2 1
Nghost:    1255.14 ave 1269 max 1233 min
Histogram: 1 1 3 4 2 6 4 3 9 3
Neighs:    3228.19 ave 3919 max 2650 min
Histogram: 5 3 3 5 2 7 1 7 1 2

Total # of neighbors = 116215
Ave neighs/atom = 129.128
Ave special neighs/atom = 0
Neighbor list builds = 53392
Dangerous builds = 0
unfix integrator
write_restart production.restart
undump traj1
Total wall time: 0:10:11
