LAMMPS (12 Dec 2018)
OMP_NUM_THREADS environment is not set. Defaulting to 1 thread. (../comm.cpp:87)
  using 1 OpenMP thread(s) per MPI task
# Lammps script to read in mBuild topologies and perform energy minimization
# Initialization
units           real
boundary        p p p
atom_style      full

# Assume ff info is included in data file
pair_style     lj/cut/coul/cut ${rcut} # read in from job.sp.r_cut
pair_style     lj/cut/coul/cut 14.0 
bond_style  none
angle_style none
dihedral_style  none
read_restart equilibrated_npt.restart
  restoring atom style full from restart
  triclinic box = (-0.27016 -0.27016 -0.27016) to (40.2502 40.2502 40.2502) with tilt (0 0 0)
  3 by 3 by 4 MPI processor grid
  restoring pair style lj/cut/coul/cut from restart
  restoring bond style harmonic from restart
  restoring angle style harmonic from restart
  restoring dihedral style opls from restart
  900 atoms
  0 = max # of 1-2 neighbors
  0 = max # of 1-3 neighbors
  0 = max # of 1-4 neighbors
  1 = max # of special neighbors

pair_modify shift no  #TODO: Look to make sure this shift is okay

neighbor        2.5 bin #skin cutoff

timestep 2.0
thermo 2000
thermo_style custom step temp press pe epair emol ke etotal density

variable tsample equal ${T} #kelvin, modified by job.sp.temperature
variable tsample equal 140.0 
variable psample equal ${P}/101.325 #kPa to atm modified by job.sp.pressure
variable psample equal 1318.0/101.325 
# ________________________________________________________________________________________

# Production
variable startstep equal step
variable t equal temp
variable pressure equal press
variable e equal etotal
variable p equal pe
variable k equal ke
variable d equal density
variable filename string "prlog.txt"
fix output_data all print 1000 "${startstep} ${t} ${pressure} $e $p $k $d" file ${filename} title "step temp press etotal pe ke density"
fix output_data all print 1000 "${startstep} ${t} ${pressure} $e $p $k $d" file prlog.txt title "step temp press etotal pe ke density"
dump traj1 all dcd 10000 prod.dcd
fix integrator all npt temp ${tsample} ${tsample} 100.0 iso ${psample} ${psample} 1000.0 pchain 10
fix integrator all npt temp 140 ${tsample} 100.0 iso ${psample} ${psample} 1000.0 pchain 10
fix integrator all npt temp 140 140 100.0 iso ${psample} ${psample} 1000.0 pchain 10
fix integrator all npt temp 140 140 100.0 iso 13.007648655317 ${psample} 1000.0 pchain 10
fix integrator all npt temp 140 140 100.0 iso 13.007648655317 13.007648655317 1000.0 pchain 10
fix zeromom all momentum 100 linear 1 1 1 rescale
run 3000000
Neighbor list info ...
  update every 1 steps, delay 10 steps, check yes
  max neighbors/atom: 2000, page size: 100000
  master list distance cutoff = 16.5
  ghost atom cutoff = 16.5
  binsize = 8.25, bins = 5 5 5
  1 neighbor lists, perpetual/occasional/extra = 1 0 0
  (1) pair lj/cut/coul/cut, perpetual
      attributes: half, newton on
      pair build: half/bin/newton/tri
      stencil: half/bin/3d/newton/tri
      bin: standard
Per MPI rank memory allocation (min/avg/max) = 5.728 | 5.779 | 5.982 Mbytes
Step Temp Press PotEng E_pair E_mol KinEng TotEng Density 
  200000    135.10966    37.160928   -1270.8519   -1270.8519            0    362.05987   -908.79202   0.36037822 
201000 145.492824715316 13.5054637196122 -909.658068442882 -1299.54220867164 389.884140228758 0.365729332761473
202000 144.092453740676 -32.5705780471367 -889.479784584748 -1275.61128316594 386.13149858119 0.359788644894862
  202000    144.09245   -32.570578   -1275.6113   -1275.6113            0     386.1315   -889.47978   0.35978864 
203000 141.897427400179 71.0054654840558 -933.65351214733 -1313.9028927669 380.249380619574 0.369863954924519
204000 143.341346605916 40.4954887366844 -882.724349399167 -1266.84306996173 384.118720562559 0.359977330348008
  204000    143.34135    40.495489   -1266.8431   -1266.8431            0    384.11872   -882.72435   0.35997733 
205000 138.181322525776 144.45257698262 -924.004752855528 -1294.29590799703 370.291155141504 0.369000916823629
206000 139.286930657224 -90.3157734566419 -885.551395892407 -1258.80530247271 373.253906580299 0.353024393855192
  206000    139.28693   -90.315773   -1258.8053   -1258.8053            0    373.25391    -885.5514   0.35302439 
207000 141.172633947389 37.6181012606679 -887.396748972012 -1265.70386561577 378.307116643758 0.358051238387752
208000 135.114209126065 75.5206853930435 -922.920795564955 -1284.99285898719 362.072063422237 0.364248506535531
  208000    135.11421    75.520685   -1284.9929   -1284.9929            0    362.07206    -922.9208   0.36424851 
209000 144.712284613728 21.2360097223116 -899.476726273267 -1287.26921554249 387.79248926922 0.363482250263405
210000 136.619971159692 -29.3053610054156 -912.287441277871 -1278.39456785198 366.107126574106 0.357839378564036
  210000    136.61997   -29.305361   -1278.3946   -1278.3946            0    366.10713   -912.28744   0.35783938 
211000 138.181774414174 16.0746005960111 -900.462523746888 -1270.75488983553 370.292366088641 0.358950548112248
212000 139.452151385451 -32.7349949991061 -911.603090883843 -1285.29974741899 373.696656535143 0.363008146824012
  212000    139.45215   -32.734995   -1285.2997   -1285.2997            0    373.69666   -911.60309   0.36300815 
213000 136.163368885002 43.4714532760489 -903.648056454982 -1268.53160388941 364.88354743443 0.360387285053471
214000 140.514405265808 10.4354867702804 -940.425587206682 -1316.96881670278 376.543229496099 0.370301975046831
  214000    140.51441    10.435487   -1316.9688   -1316.9688            0    376.54323   -940.42559   0.37030198 
215000 135.834655207897 -73.1487407724149 -945.337916587275 -1309.34059412568 364.002677538404 0.366815803973284
216000 138.788266011879 -50.9516850266307 -904.387261892032 -1276.30487276914 371.917610877104 0.358796607097179
  216000    138.78827   -50.951685   -1276.3049   -1276.3049            0    371.91761   -904.38726   0.35879661 
217000 135.616492562099 41.5619342816248 -932.098915039376 -1295.51697161277 363.418056573394 0.364950063834009
218000 138.223915707442 24.9564728424813 -928.117188742156 -1298.52248288705 370.405294144895 0.365672257361042
  218000    138.22392    24.956473   -1298.5225   -1298.5225            0    370.40529   -928.11719   0.36567226 
219000 138.443497946615 -3.30670541984313 -950.903883576688 -1321.89760283943 370.993719262746 0.370836906074816
220000 137.650752299603 -62.4181395765686 -942.324244559217 -1311.19360507362 368.869360514401 0.365850879518763
  220000    137.65075    -62.41814   -1311.1936   -1311.1936            0    368.86936   -942.32424   0.36585088 
221000 133.187289534999 -52.8009892453272 -916.199576328922 -1273.10798037811 356.908404049189 0.358028515205464
222000 142.65166638467 -39.9795369287846 -916.084608369197 -1298.35515957619 382.270551206996 0.363985506486227
  222000    142.65167   -39.979537   -1298.3552   -1298.3552            0    382.27055   -916.08461   0.36398551 
223000 135.117777816915 -40.4801215392146 -909.228113290573 -1271.30973990582 362.081626615244 0.357157601853104
224000 139.237891365875 62.955208203323 -946.529011319195 -1319.65150494506 373.122493625863 0.372117262482196
  224000    139.23789    62.955208   -1319.6515   -1319.6515            0    373.12249   -946.52901   0.37211726 
225000 136.512033856073 -3.30128973877992 -936.632549983213 -1302.45043175846 365.817881775246 0.366927376281114
226000 136.869596118325 -2.64761709018137 -946.118778184424 -1312.89483680083 366.776058616402 0.368887801185688
  226000     136.8696   -2.6476171   -1312.8948   -1312.8948            0    366.77606   -946.11878    0.3688878 
227000 141.382941221054 -53.0236385849212 -908.979085303445 -1287.8497724926 378.870687189158 0.360572933448799
228000 137.761679752923 107.653815875056 -932.644739502927 -1301.81135766457 369.166618161641 0.368600342624758
  228000    137.76168    107.65382   -1301.8114   -1301.8114            0    369.16662   -932.64474   0.36860034 
229000 135.046151922304 37.2635178060209 -912.062961743202 -1273.95264899379 361.889687250584 0.360806080132482
230000 139.653371315337 -44.4001482551087 -909.41656484432 -1283.65244013141 374.235875287091 0.359753176562377
  230000    139.65337   -44.400148   -1283.6524   -1283.6524            0    374.23588   -909.41656   0.35975318 
231000 136.023030458333 27.2594364301804 -950.319371928821 -1314.82684771209 364.507475783268 0.36993322506285
232000 141.55863356447 -52.6859750154669 -908.548828806147 -1287.89032724247 379.341498436322 0.361523343612585
  232000    141.55863   -52.685975   -1287.8903   -1287.8903            0     379.3415   -908.54883   0.36152334 
233000 146.811855537447 86.1124359346379 -877.636136806484 -1271.05494755269 393.418810746209 0.362198224732833
234000 143.239949462937 -13.3331252472745 -921.15829099459 -1305.00529274222 383.847001747632 0.366205451561418
  234000    143.23995   -13.333125   -1305.0053   -1305.0053            0      383.847   -921.15829   0.36620545 
235000 141.57404757657 81.8802143330142 -915.337383435449 -1294.72018754349 379.38280410804 0.36742524065581
236000 137.269732119398 24.6176677697528 -931.129690137194 -1298.97801249621 367.848322359017 0.366288522257673
  236000    137.26973    24.617668    -1298.978    -1298.978            0    367.84832   -931.12969   0.36628852 
237000 140.455282928414 36.7749757218388 -879.53776188407 -1255.92255840089 376.38479651682 0.355914196632803
238000 135.782341394233 35.4251007440269 -930.399415058091 -1294.26190474667 363.862489688575 0.365330808830283
  238000    135.78234    35.425101   -1294.2619   -1294.2619            0    363.86249   -930.39942   0.36533081 
239000 141.715714016977 87.3899906974868 -912.67390551495 -1292.43634001662 379.762434501672 0.368144999943913
240000 139.710659141573 3.35152287817635 -963.814517444889 -1338.20390968322 374.389392238332 0.373852088393943
  240000    139.71066    3.3515229   -1338.2039   -1338.2039            0    374.38939   -963.81452   0.37385209 
241000 136.061778944479 8.92304329377411 -918.024833337067 -1282.63614530769 364.611311970625 0.362668125247487
242000 140.68684312787 62.9514565128553 -916.062504298756 -1293.06782385135 377.005319552597 0.366378911738693
  242000    140.68684    62.951457   -1293.0678   -1293.0678            0    377.00532    -916.0625   0.36637891 
243000 140.297273367762 73.9020302921038 -920.55942861226 -1296.52079928782 375.961370675557 0.366895959906645
244000 134.404445644712 -46.0672551864488 -909.466036797641 -1269.63611278349 360.170075985851 0.357285079750683
  244000    134.40445   -46.067255   -1269.6361   -1269.6361            0    360.17008   -909.46604   0.35728508 
245000 140.843926750871 -99.6852216004948 -891.242197381148 -1268.66846149522 377.426264114074 0.354412195274755
246000 141.338259347335 4.43213726139509 -918.485469985915 -1297.23642100284 378.750951016925 0.363664551950451
  246000    141.33826    4.4321373   -1297.2364   -1297.2364            0    378.75095   -918.48547   0.36366455 
247000 140.486793721368 -13.6153583868135 -934.348377222593 -1310.81761473121 376.469237508621 0.36600893384305
248000 137.056787635768 31.1099465179792 -961.788645998006 -1329.06633075287 367.277684754865 0.374050526210046
  248000    137.05679    31.109947   -1329.0663   -1329.0663            0    367.27768   -961.78865   0.37405053 
249000 145.531026534884 57.7739793810583 -905.449019108451 -1295.43553059577 389.986511487317 0.366207046977219
250000 146.906958788666 79.3544668433284 -884.762060578292 -1278.43572409409 393.673663515799 0.362533229914516
  250000    146.90696    79.354467   -1278.4357   -1278.4357            0    393.67366   -884.76206   0.36253323 
251000 137.297773811372 -57.6015937002016 -903.555848887101 -1271.47931592069 367.923467033588 0.357371251157073
252000 147.058683425856 -7.94208355384617 -911.047203103484 -1305.12745044799 394.080247344508 0.366654988157007
  252000    147.05868   -7.9420836   -1305.1275   -1305.1275            0    394.08025    -911.0472   0.36665499 
253000 133.836422004641 61.7500326321924 -947.063721555646 -1305.71163719461 358.647915638961 0.368877011660607
254000 136.19839542407 122.692628926736 -904.233674124143 -1269.21108386482 364.977409740672 0.363340259975789
  254000     136.1984    122.69263   -1269.2111   -1269.2111            0    364.97741   -904.23367   0.36334026 
255000 133.281909808865 -17.8720698826927 -930.388030782398 -1287.54999334347 357.161962561071 0.36279426163737
256000 144.77284444801 50.4570889012652 -900.395210711074 -1288.34998508932 387.954774378246 0.364361478293877
  256000    144.77284    50.457089     -1288.35     -1288.35            0    387.95477   -900.39521   0.36436148 
257000 139.77595371677 -96.8377687143199 -926.077744372013 -1300.64210963298 374.564365260966 0.362552257479963
258000 136.418050355239 2.90544013372604 -942.982105343291 -1308.54813499806 365.566029654772 0.36814732966182
  258000    136.41805    2.9054401   -1308.5481   -1308.5481            0    365.56603   -942.98211   0.36814733 
259000 135.605182428232 -5.06872064026015 -926.483588745577 -1289.8713370077 363.387748262128 0.363412830731425
260000 139.122857026386 7.41327608726023 -915.934962044798 -1288.74919260246 372.81423055766 0.362830832807733
  260000    139.12286    7.4132761   -1288.7492   -1288.7492            0    372.81423   -915.93496   0.36283083 
261000 138.440677449897 7.34687552612798 -870.270230030499 -1241.25639107214 370.986161041644 0.352737854299464
262000 145.991291868953 12.8995092757066 -901.864196448254 -1293.08410315215 391.219906703898 0.364476782607353
  262000    145.99129    12.899509   -1293.0841   -1293.0841            0    391.21991    -901.8642   0.36447678 
263000 140.285322213506 125.768280667511 -895.874666445942 -1271.80401103698 375.929344591034 0.363298323101708
264000 146.631651377289 28.4772821057573 -904.351764066952 -1297.28767303305 392.935908966093 0.366341286607251
  264000    146.63165    28.477282   -1297.2877   -1297.2877            0    392.93591   -904.35176   0.36634129 
265000 132.9437901452 0.69902899337106 -895.375302114328 -1251.63118910349 356.255886989164 0.354450578911103
266000 136.661817251123 -7.93061855541344 -948.641656988344 -1314.8609205521 366.219263563757 0.369297696508236
  266000    136.66182   -7.9306186   -1314.8609   -1314.8609            0    366.21926   -948.64166    0.3692977 
267000 146.818686912685 62.1935700097069 -904.649260812423 -1298.08637792437 393.437117111945 0.36710968086666
268000 140.94447966567 89.7399975992188 -883.195644860768 -1260.89136547079 377.695720610024 0.359809626703761
  268000    140.94448    89.739998   -1260.8914   -1260.8914            0    377.69572   -883.19564   0.35980963 
269000 139.347019365603 -80.0696268913952 -916.233489513474 -1289.64841870399 373.414929190519 0.359836253581116
270000 135.120080743643 22.8355405729445 -929.943998506368 -1292.03179638545 362.087797879079 0.366479826471047
  270000    135.12008    22.835541   -1292.0318   -1292.0318            0     362.0878     -929.944   0.36647983 
271000 144.828402187149 -25.2453968913201 -921.046824890446 -1309.15048002209 388.103655131642 0.367878382345382
272000 135.84569642593 135.77828562318 -924.318950315917 -1288.35121553885 364.032265222938 0.36660728495812
  272000     135.8457    135.77829   -1288.3512   -1288.3512            0    364.03227   -924.31895   0.36660728 
273000 139.049113563663 -48.0650124196126 -894.126894925292 -1266.74351156888 372.616616643589 0.355940526270531
274000 135.774230316457 -42.5803448804288 -926.002546508114 -1289.84330055033 363.840754042219 0.362737363791195
  274000    135.77423   -42.580345   -1289.8433   -1289.8433            0    363.84075   -926.00255   0.36273736 
275000 146.266816399738 75.8577327053973 -883.234368230537 -1275.19261130949 391.958243078953 0.362328370681001
276000 141.647652905017 -28.6297772557431 -921.838837289176 -1301.4188851462 379.580047857029 0.365830382218483
  276000    141.64765   -28.629777   -1301.4189   -1301.4189            0    379.58005   -921.83884   0.36583038 
277000 141.424170651509 55.6266565001156 -882.620008249352 -1261.601179932 378.981171682648 0.358468005145271
278000 138.332315548881 -17.9870135391759 -868.920243444565 -1239.61602187323 370.695778428661 0.350537249480126
  278000    138.33232   -17.987014    -1239.616    -1239.616            0    370.69578   -868.92024   0.35053725 
279000 141.614439686095 -26.3160865910702 -936.200222444548 -1315.69126723679 379.491044792246 0.368725801001831
280000 134.95850695217 -77.4464676484005 -940.716257480709 -1302.37107827727 361.654820796565 0.36386148691249
  280000    134.95851   -77.446468   -1302.3711   -1302.3711            0    361.65482   -940.71626   0.36386149 
281000 141.344857048628 -29.6166217975708 -943.651775456681 -1322.420406652 378.76863119532 0.370161845392334
282000 140.381704743672 45.0684778708601 -907.895119481919 -1284.08274498804 376.187625506126 0.362820100145477
  282000     140.3817    45.068478   -1284.0827   -1284.0827            0    376.18763   -907.89512    0.3628201 
283000 142.274358740991 -21.078348300986 -907.418336614926 -1288.67779832974 381.259461714813 0.361522207765614
284000 143.834744163756 70.3745549377674 -918.246884716048 -1303.68778651336 385.440901797311 0.368502230888035
  284000    143.83474    70.374555   -1303.6878   -1303.6878            0     385.4409   -918.24688   0.36850223 
285000 134.247641655682 -99.4596346608546 -936.089620677378 -1295.83950145039 359.749880773015 0.362084414856652
286000 136.566515000242 -6.06907358479893 -915.411988304008 -1281.37586582918 365.96387752517 0.360695130082148
  286000    136.56652   -6.0690736   -1281.3759   -1281.3759            0    365.96388   -915.41199   0.36069513 
287000 137.664215147148 -95.4129690169617 -903.345933243999 -1272.25137080034 368.905437556346 0.355636461946569
288000 139.428052219559 20.5617504332357 -903.83710716195 -1277.46918399983 373.632076837879 0.361519204197493
  288000    139.42805     20.56175   -1277.4692   -1277.4692            0    373.63208   -903.83711    0.3615192 
289000 143.921544611346 38.3652106311434 -878.814093582857 -1264.48759872639 385.673505143531 0.357379767876378
290000 138.48989018742 56.8595521906138 -938.325737590324 -1309.44377637848 371.118038788158 0.370638776235924
  290000    138.48989    56.859552   -1309.4438   -1309.4438            0    371.11804   -938.32574   0.37063878 
291000 138.02024990197 63.8154154467765 -956.849492725252 -1326.70901378741 369.859521062162 0.373185454230587
292000 134.698052713702 38.1381751282039 -929.794136959771 -1290.75100597052 360.956869010744 0.364671904622046
  292000    134.69805    38.138175    -1290.751    -1290.751            0    360.95687   -929.79414    0.3646719 
293000 136.354558585398 25.1531383234676 -910.051441532737 -1275.44732922934 365.395887696605 0.361123285289911
294000 145.154138276546 -39.9336582913782 -947.878056091736 -1336.854601934 388.976545842261 0.373473512147959
  294000    145.15414   -39.933658   -1336.8546   -1336.8546            0    388.97655   -947.87806   0.37347351 
295000 141.406890847984 -12.4931751733353 -950.948935804096 -1329.88380196375 378.934866159653 0.372511466751661
296000 135.855062616502 54.275322856131 -937.457244493238 -1301.51460874883 364.057364255594 0.368211556311449
  296000    135.85506    54.275323   -1301.5146   -1301.5146            0    364.05736   -937.45724   0.36821156 
297000 136.508783047698 7.91706328364344 -911.457156313172 -1277.26632674041 365.809170427241 0.360568841677652
298000 145.69759415289 -24.5171569780986 -889.231645396225 -1279.66451616389 390.43287076767 0.359449884721473
  298000    145.69759   -24.517157   -1279.6645   -1279.6645            0    390.43287   -889.23165   0.35944988 
299000 139.19904116722 -7.0442976334084 -921.187144233561 -1294.20552910815 373.01838487459 0.364077155512519
300000 141.566821473157 38.6072317955144 -916.880751118144 -1296.24419108832 379.363439970173 0.366355176308865
  300000    141.56682    38.607232   -1296.2442   -1296.2442            0    379.36344   -916.88075   0.36635518 
301000 139.374830955936 -19.1810898909557 -905.926312465207 -1279.41576971583 373.489457250624 0.360089089740058
302000 143.832560618516 69.2016606097767 -914.495689987424 -1299.93074043323 385.435050445807 0.368038902689994
  302000    143.83256    69.201661   -1299.9307   -1299.9307            0    385.43505   -914.49569    0.3680389 
303000 138.80683278754 10.0716665392596 -891.778546517793 -1263.7459116792 371.96736516141 0.356945281756969
304000 144.910040222623 -69.6373553424906 -880.566933468635 -1268.88935798174 388.322424513107 0.356170003382719
  304000    144.91004   -69.637355   -1268.8894   -1268.8894            0    388.32242   -880.56693      0.35617 
305000 134.987731336218 -61.5901133713535 -917.912833389378 -1279.64596817751 361.733134788136 0.359662873862489
306000 145.361993197738 -27.162009392403 -918.944665231142 -1308.47820993159 389.533544700452 0.367738857623201
  306000    145.36199   -27.162009   -1308.4782   -1308.4782            0    389.53354   -918.94467   0.36773886 
307000 137.42280267124 112.803105177683 -899.370730513224 -1267.62924341336 368.258512900138 0.36151540586559
308000 140.171958592252 -37.9685130895924 -929.085547408108 -1304.71110603518 375.625558627071 0.365996832712371
  308000    140.17196   -37.968513   -1304.7111   -1304.7111            0    375.62556   -929.08555   0.36599683 
309000 137.217684686544 96.4356473452216 -945.312876259359 -1313.02172460205 367.708848342691 0.373268254337375
310000 139.124364366472 -5.73294196655354 -921.063177669796 -1293.88144751939 372.818269849594 0.363966022914464
  310000    139.12436    -5.732942   -1293.8814   -1293.8814            0    372.81827   -921.06318   0.36396602 
311000 146.739997962904 -18.4224005394364 -891.220385318073 -1284.44663585573 393.226250537658 0.360186869515756
312000 131.757079096016 -50.2592324660179 -942.643130557976 -1295.71893070769 353.075800149717 0.362921701424787
  312000    131.75708   -50.259232   -1295.7189   -1295.7189            0     353.0758   -942.64313    0.3629217 
313000 138.367569884259 -56.8536160696951 -895.487654498329 -1266.27790566999 370.790251171663 0.35547349346717
314000 144.434180009109 71.0727024769546 -893.196418727187 -1280.24365767305 387.047238945861 0.363099369267203
  314000    144.43418    71.072702   -1280.2437   -1280.2437            0    387.04724   -893.19642   0.36309937 
315000 132.629695885128 -1.37985138540524 -941.398616048196 -1296.81280949832 355.414193450127 0.367580633173186
316000 136.213642139488 -25.5332611114351 -894.515557960736 -1259.53382506014 365.018267099404 0.354892343730257
  316000    136.21364   -25.533261   -1259.5338   -1259.5338            0    365.01827   -894.51556   0.35489234 
317000 134.96113075685 34.7981023338883 -906.049058474305 -1267.71091040683 361.661851932524 0.358258098865883
318000 140.554298731172 67.9260511876924 -925.414010795897 -1302.06414473539 376.650133939494 0.368685310841349
  318000     140.5543    67.926051   -1302.0641   -1302.0641            0    376.65013   -925.41401   0.36868531 
319000 144.627435014973 11.512167548847 -881.26850326275 -1268.83361696947 387.565113706721 0.357039193064584
320000 132.902490344593 68.7498766786505 -946.906869996477 -1303.05208391786 356.145213921383 0.369996901272954
  320000    132.90249    68.749877   -1303.0521   -1303.0521            0    356.14521   -946.90687    0.3699969 
321000 142.146182212743 -17.6316162889784 -898.612847630541 -1279.52882852002 380.91598088948 0.359310103303578
322000 135.909507905928 -52.0361798865483 -930.479949240169 -1294.683213164 364.203263923833 0.363449153113115
  322000    135.90951    -52.03618   -1294.6832   -1294.6832            0    364.20326   -930.47995   0.36344915 
323000 129.633275316043 -4.51888221768052 -929.01868682175 -1276.4032275407 347.384540718953 0.359713729583439
324000 146.198968442438 91.9767082714446 -921.357322639385 -1313.13375027452 391.776427635134 0.371145849653981
  324000    146.19897    91.976708   -1313.1338   -1313.1338            0    391.77643   -921.35732   0.37114585 
325000 136.043977587675 -46.1141667357301 -913.673467281741 -1278.23707609789 364.563608816151 0.360616005596304
326000 138.174558841587 55.0587958562667 -908.167575815257 -1278.44060598599 370.273030170737 0.363030849943835
  326000    138.17456    55.058796   -1278.4406   -1278.4406            0    370.27303   -908.16758   0.36303085 
327000 142.591987349995 52.9709904415737 -895.726957642879 -1277.83758406204 382.110626419161 0.364121055321344
328000 142.648333181058 98.2115021439347 -888.850004304606 -1271.11162336511 382.2616190605 0.36027746474342
  328000    142.64833    98.211502   -1271.1116   -1271.1116            0    382.26162      -888.85   0.36027746 
329000 134.307806761991 60.4622269451955 -922.075775135915 -1281.98688324637 359.911108110452 0.363917728328942
330000 142.012025059592 13.0166330629844 -937.688452885114 -1318.24492638023 380.556473495117 0.37083327328375
  330000    142.01203    13.016633   -1318.2449   -1318.2449            0    380.55647   -937.68845   0.37083327 
331000 145.524340747887 16.4956107865795 -892.408191417433 -1282.37678667885 389.968595261412 0.360486942197472
332000 142.331027963788 2.62276679674538 -930.315250526206 -1311.72657149079 381.411320964581 0.367521714256329
  332000    142.33103    2.6227668   -1311.7266   -1311.7266            0    381.41132   -930.31525   0.36752171 
333000 138.053357095354 -39.6580526724674 -898.113497378279 -1268.06173738348 369.948240005197 0.35660502955241
334000 140.70715622561 10.8745133729776 -914.173496906688 -1291.2332504471 377.059753540412 0.363535812177089
  334000    140.70716    10.874513   -1291.2333   -1291.2333            0    377.05975    -914.1735   0.36353581 
335000 133.577492195405 46.8051756853616 -934.249316942719 -1292.2033658824 357.954048939683 0.364978002106608
336000 138.703828671064 -13.6913462992305 -918.49685638535 -1290.18819644744 371.691340062091 0.364751247198717
  336000    138.70383   -13.691346   -1290.1882   -1290.1882            0    371.69134   -918.49686   0.36475125 
337000 146.996979916559 57.9070199862804 -895.478683783649 -1289.39358125803 393.91489747438 0.364017620030397
338000 141.743398581033 86.6178638138793 -913.280523397652 -1293.11714556099 379.836622163337 0.366287384283062
  338000     141.7434    86.617864   -1293.1171   -1293.1171            0    379.83662   -913.28052   0.36628738 
339000 143.002161807517 112.783141985209 -908.038639397333 -1291.24843009506 383.209790697727 0.366094469285779
340000 136.172966645032 -60.2779429509564 -969.978648563484 -1334.88791557841 364.90926701493 0.372339308469205
  340000    136.17297   -60.277943   -1334.8879   -1334.8879            0    364.90927   -969.97865   0.37233931 
341000 137.793427594801 31.4858901995964 -898.153651882729 -1267.40534626761 369.251694384878 0.359217789448761
342000 140.685871896401 -33.2252613498056 -904.380557365067 -1281.38327426185 377.002716896782 0.359642028239135
  342000    140.68587   -33.225261   -1281.3833   -1281.3833            0    377.00272   -904.38056   0.35964203 
343000 139.055506501871 7.68717763568129 -889.640302225836 -1262.2740503343 372.633748108467 0.35652342934732
344000 138.881125241348 88.3408489967179 -925.510148677261 -1297.67659891063 372.166450233373 0.367848036937553
  344000    138.88113    88.340849   -1297.6766   -1297.6766            0    372.16645   -925.51015   0.36784804 
345000 143.696539512961 7.31017892207031 -889.321984395161 -1274.39253252344 385.070548128281 0.359654132486378
346000 134.639352388116 -16.2949124896351 -936.457354829365 -1297.25692174623 360.799566916864 0.364877654041894
  346000    134.63935   -16.294912   -1297.2569   -1297.2569            0    360.79957   -936.45735   0.36487765 
347000 143.817766605789 6.9863541447835 -912.94961019181 -1298.34501640812 385.395406216313 0.365707122618373
348000 142.683694073276 -88.9902561887369 -892.154453702226 -1274.51083105123 382.356377349008 0.357410837244013
  348000    142.68369   -88.990256   -1274.5108   -1274.5108            0    382.35638   -892.15445   0.35741084 
349000 142.554839443915 -24.3499629269911 -903.564095653239 -1285.57517503665 382.011079383411 0.360513106755436
350000 138.185444760447 -21.3841605026326 -910.346352323523 -1280.64855401611 370.302201692589 0.360678029823938
  350000    138.18544   -21.384161   -1280.6486   -1280.6486            0     370.3022   -910.34635   0.36067803 
351000 140.097764841794 71.1117371491144 -858.371698630375 -1233.79843668561 375.426738055239 0.351147800673001
352000 140.644741997747 -81.3856988866199 -934.896943780187 -1311.78944290365 376.89249912346 0.36552502395038
  352000    140.64474   -81.385699   -1311.7894   -1311.7894            0     376.8925   -934.89694   0.36552502 
353000 141.303701311632 34.7831686936687 -891.398076185345 -1270.05642036709 378.658344181747 0.360922292730629
354000 141.626239687251 7.44372203660927 -896.393839404124 -1275.91650522864 379.522665824516 0.361532042235097
  354000    141.62624     7.443722   -1275.9165   -1275.9165            0    379.52267   -896.39384   0.36153204 
355000 141.540061158435 25.4462156285856 -901.442371754288 -1280.73410081832 379.291729064031 0.361260959865582
356000 142.221861806776 15.290231823452 -929.420882338494 -1310.5396654865 381.11878314801 0.368149403100232
  356000    142.22186    15.290232   -1310.5397   -1310.5397            0    381.11878   -929.42088    0.3681494 
357000 136.095820842688 -112.050517341956 -937.05061413669 -1301.75314982395 364.702535687264 0.363564525448833
358000 138.72898300509 3.4197329166766 -917.460132266015 -1289.21887961031 371.758747344298 0.363828615674502
  358000    138.72898    3.4197329   -1289.2189   -1289.2189            0    371.75875   -917.46013   0.36382862 
359000 129.830360244684 6.38546028984819 -962.687687548105 -1310.60036625672 347.912678708615 0.368999562829215
360000 139.689692425499 80.6224173162955 -909.507512840393 -1283.84071955833 374.33320671794 0.36284711078751
  360000    139.68969    80.622417   -1283.8407   -1283.8407            0    374.33321   -909.50751   0.36284711 
361000 149.00854419879 3.44471610922228 -881.743191486288 -1281.04857479547 399.305383309177 0.361742133809211
362000 137.308896177327 57.1465262818086 -917.061330066459 -1285.01460224058 367.953272174125 0.363610803733889
  362000     137.3089    57.146526   -1285.0146   -1285.0146            0    367.95327   -917.06133    0.3636108 
363000 144.837651335939 14.0478393788654 -897.237101462472 -1285.36554198426 388.128440521787 0.363338664890032
364000 138.357185647355 9.26806825864392 -915.619358971846 -1286.38178300299 370.762424031149 0.362710847682678
  364000    138.35719    9.2680683   -1286.3818   -1286.3818            0    370.76242   -915.61936   0.36271085 
365000 140.71090740884 -62.3120445154967 -890.443424107325 -1267.51322987438 377.069805767052 0.355848699047744
366000 142.384927502945 -8.15537781994875 -914.767076801704 -1296.3228349612 381.555758159501 0.364117984303575
  366000    142.38493   -8.1553778   -1296.3228   -1296.3228            0    381.55576   -914.76708   0.36411798 
367000 134.559982340299 37.8778810502825 -930.119796161747 -1290.70667133307 360.586875171319 0.363146173873945
368000 135.280671788985 62.5097479110429 -928.617231070179 -1291.13537251956 362.518141449382 0.366804686678496
  368000    135.28067    62.509748   -1291.1354   -1291.1354            0    362.51814   -928.61723   0.36680469 
369000 129.61083629123 -28.8933916240203 -949.417427650071 -1296.74183743189 347.324409781816 0.365208190476408
370000 138.757263647713 53.5240496305068 -929.190026851665 -1301.02455919811 371.83453234645 0.36724551421027
  370000    138.75726     53.52405   -1301.0246   -1301.0246            0    371.83453   -929.19003   0.36724551 
371000 136.660013630014 33.8807548464222 -906.554208308688 -1272.76863862196 366.214430313272 0.359933673755436
372000 134.928200857227 84.2975750788727 -944.047669650476 -1305.62127774261 361.573608092134 0.369429167790367
  372000     134.9282    84.297575   -1305.6213   -1305.6213            0    361.57361   -944.04767   0.36942917 
373000 138.583536846263 -43.4676302418982 -922.144661763482 -1293.51365002038 371.3689882569 0.361394360058501
374000 143.535362847369 -151.373224556177 -886.661276642842 -1271.29991188599 384.638635243146 0.352996201649555
  374000    143.53536   -151.37322   -1271.2999   -1271.2999            0    384.63864   -886.66128    0.3529962 
375000 140.633226531258 14.9999166574927 -934.592898139236 -1311.4545387117 376.861640572462 0.369301022902644
376000 141.086179335023 10.7298868846891 -922.975479586043 -1301.05091963491 378.075440048868 0.366654253595778
  376000    141.08618    10.729887   -1301.0509   -1301.0509            0    378.07544   -922.97548   0.36665425 
377000 136.754292824276 -84.231183857833 -878.655494336397 -1245.12256915409 366.467074817689 0.350923902640387
378000 140.492138050636 -29.9857319411198 -879.639592776473 -1256.12315174202 376.483558965545 0.353936845523654
  378000    140.49214   -29.985732   -1256.1232   -1256.1232            0    376.48356   -879.63959   0.35393685 
379000 143.402481892672 36.3899323484182 -906.242314319336 -1290.52486205867 384.282547739338 0.364535224092386
380000 138.725936141952 -6.78166696925917 -915.648188068777 -1287.39877058696 371.750582518182 0.364081265878831
  380000    138.72594    -6.781667   -1287.3988   -1287.3988            0    371.75058   -915.64819   0.36408127 
381000 138.312641227519 -58.280037019201 -885.318762962543 -1255.96181916326 370.643056200716 0.353895559797024
382000 138.002582111317 -75.763810789056 -898.894008571537 -1268.70618440288 369.812175831345 0.356846531724476
  382000    138.00258   -75.763811   -1268.7062   -1268.7062            0    369.81218   -898.89401   0.35684653 
383000 140.098491151533 -16.6064080221793 -916.011174006388 -1291.43985838887 375.428684382479 0.361982074619418
384000 135.990864098144 -79.3687221139404 -938.209895095445 -1302.63117313177 364.421278036326 0.364959771124739
  384000    135.99086   -79.368722   -1302.6312   -1302.6312            0    364.42128    -938.2099   0.36495977 
385000 139.614519240361 21.5656681945709 -940.405284398298 -1314.53704590605 374.131761507749 0.370038127873678
386000 141.883513856311 3.08606199597924 -928.25794046234 -1308.47003628729 380.212095824952 0.366814263494897
  386000    141.88351     3.086062     -1308.47     -1308.47            0     380.2121   -928.25794   0.36681426 
387000 139.476849560959 127.674352531494 -908.282283457298 -1282.04512488466 373.762841427366 0.363670200431177
388000 135.675579252788 68.5804702940308 -914.786127133205 -1278.36252116168 363.576394028476 0.36277525927715
  388000    135.67558     68.58047   -1278.3625   -1278.3625            0    363.57639   -914.78613   0.36277526 
389000 141.939239732341 62.5700131841628 -919.369240336978 -1299.73066747986 380.361427142885 0.36758694718377
390000 135.728638114186 38.1665172347131 -933.656902904129 -1297.37548132279 363.718578418658 0.365586714164986
  390000    135.72864    38.166517   -1297.3755   -1297.3755            0    363.71858    -933.6569   0.36558671 
391000 140.169986964938 -18.474884264537 -924.121221669466 -1299.74149683172 375.620275162257 0.364104658957794
392000 136.617087317931 30.2392570312835 -945.763921758616 -1311.86332036285 366.099398604237 0.367222651279801
  392000    136.61709    30.239257   -1311.8633   -1311.8633            0     366.0994   -945.76392   0.36722265 
393000 136.889460945713 -15.9654928813018 -943.621120722686 -1310.45041207522 366.82929135253 0.366973724072327
394000 141.276601262482 96.678525374334 -929.319430482767 -1307.90515335564 378.585722872871 0.371260352485173
  394000     141.2766    96.678525   -1307.9052   -1307.9052            0    378.58572   -929.31943   0.37126035 
395000 139.852436216606 -22.6999068228348 -911.537968045922 -1286.30728715083 374.769319104906 0.36302735555553
396000 140.504742221423 157.063150213707 -915.484031114989 -1292.00136608495 376.517334969962 0.369229270669364
  396000    140.50474    157.06315   -1292.0014   -1292.0014            0    376.51733   -915.48403   0.36922927 
397000 140.693027266503 -29.8027363425757 -887.864720731391 -1264.88661221858 377.021891487184 0.357146800077522
398000 145.010284329765 74.7931705836106 -881.302319835623 -1269.89337331791 388.591053482286 0.360070859765438
  398000    145.01028    74.793171   -1269.8934   -1269.8934            0    388.59105   -881.30232   0.36007086 
399000 140.748767058776 20.4465586709546 -900.415778669548 -1277.58703876669 377.171260097143 0.36060605723945
400000 145.184885283328 -63.4409219918982 -877.723972358379 -1266.78291243779 389.058940079415 0.35550849293335
  400000    145.18489   -63.440922   -1266.7829   -1266.7829            0    389.05894   -877.72397   0.35550849 
401000 136.741551389982 -5.39003011822652 -920.841486943843 -1287.27441792547 366.43293098163 0.363230281624068
402000 142.755264935607 -27.4504042937892 -894.642853247591 -1277.1910224886 382.548169241014 0.357291080170177
  402000    142.75526   -27.450404    -1277.191    -1277.191            0    382.54817   -894.64285   0.35729108 
403000 139.388647076225 156.108008071548 -909.027220218939 -1282.55370119352 373.526480974584 0.365931576672826
404000 143.511973301714 19.623939478318 -911.730653509446 -1296.30661065891 384.575957149459 0.364317504065096
  404000    143.51197    19.623939   -1296.3066   -1296.3066            0    384.57596   -911.73065    0.3643175 
405000 146.961871481675 89.2192388121472 -906.066645319466 -1299.88746102743 393.820815707967 0.366289009176134
406000 138.425103498713 -20.752153589144 -891.202447429173 -1262.14687420262 370.944426773448 0.355734555219711
  406000     138.4251   -20.752154   -1262.1469   -1262.1469            0    370.94443   -891.20245   0.35573456 
407000 141.848002835147 113.526952272772 -921.932525468947 -1302.04946069762 380.116935228668 0.37055907303502
408000 136.448937146832 38.6072314839982 -919.311455839176 -1284.9602543192 365.648798480027 0.363375510374439
  408000    136.44894    38.607231   -1284.9603   -1284.9603            0     365.6488   -919.31146   0.36337551 
409000 134.164012769677 -100.864458549043 -923.260495947403 -1282.78627236075 359.525776413352 0.359482059296558
410000 139.217321045489 1.81491075326105 -902.361296368842 -1275.42866671496 373.067370346116 0.359442847573953
  410000    139.21732    1.8149108   -1275.4287   -1275.4287            0    373.06737    -902.3613   0.35944285 
411000 135.385177212467 35.0678100786097 -912.893053872122 -1275.69124354562 362.7981896735 0.360889804431143
412000 138.170182775508 -37.347689223136 -928.391482227975 -1298.65278564336 370.261303415388 0.365300305482988
  412000    138.17018   -37.347689   -1298.6528   -1298.6528            0     370.2613   -928.39148   0.36530031 
413000 142.48680976873 -40.5395498265844 -914.501963915912 -1296.33074089732 381.828776981411 0.363000528226397
414000 137.782408219217 7.52166875513953 -925.136244781416 -1294.35841001402 369.222165232607 0.364271759284129
  414000    137.78241    7.5216688   -1294.3584   -1294.3584            0    369.22217   -925.13624   0.36427176 
415000 137.449650486375 123.399821698261 -936.957739967414 -1305.28819825277 368.330458285357 0.370750171698895
416000 139.797539265381 100.687650990193 -896.675681452025 -1271.29789054878 374.622209096759 0.36223574124238
  416000    139.79754    100.68765   -1271.2979   -1271.2979            0    374.62221   -896.67568   0.36223574 
417000 137.253108828714 -98.0670390681212 -906.940688936292 -1274.74446506144 367.803776125148 0.356559785339304
418000 144.955983354037 0.133657728057678 -888.803303464099 -1277.24884400252 388.445540538421 0.359893610162168
  418000    144.95598   0.13365773   -1277.2488   -1277.2488            0    388.44554    -888.8033   0.35989361 
419000 135.477549951362 -21.5116791433039 -920.481196814198 -1283.52692217171 363.045725357513 0.361797623995937
420000 146.029263126503 47.6803254993394 -903.41839316013 -1294.74005327442 391.321660114295 0.363629690285709
  420000    146.02926    47.680325   -1294.7401   -1294.7401            0    391.32166   -903.41839   0.36362969 
421000 129.01498001461 -42.5564465606974 -952.65594746529 -1298.38361244155 345.72766497626 0.364260412787378
422000 137.594089725174 -2.35369242426949 -940.071423852496 -1308.78894293308 368.717519080586 0.368129124837766
  422000    137.59409   -2.3536924   -1308.7889   -1308.7889            0    368.71752   -940.07142   0.36812912 
423000 137.562000221063 15.8900844096708 -892.964716985551 -1261.59624427414 368.631527288586 0.35703389333874
424000 139.088550438841 15.4685947532467 -911.423956002326 -1284.14625354256 372.722297540238 0.364221535381988
  424000    139.08855    15.468595   -1284.1463   -1284.1463            0     372.7223   -911.42396   0.36422154 
425000 142.854700282028 122.953376931782 -902.841221772715 -1285.65585270779 382.814630935077 0.366545018496804
426000 147.551609654431 55.2671141051803 -875.465084580818 -1270.86625011631 395.401165535492 0.360054644036873
  426000    147.55161    55.267114   -1270.8663   -1270.8663            0    395.40117   -875.46508   0.36005464 
427000 135.832772728189 40.490162925471 -898.817118343461 -1262.81475131019 363.997632966728 0.358386158128892
428000 141.565264037898 86.379484768934 -920.431792023418 -1299.79105845921 379.359266435789 0.370310716503796
  428000    141.56526    86.379485   -1299.7911   -1299.7911            0    379.35927   -920.43179   0.37031072 
429000 140.810980956968 -14.2761738421337 -909.21715001545 -1286.55512769646 377.337977681013 0.363263170453024
430000 133.620680820388 -94.121820137222 -944.678775222978 -1302.74855880423 358.069783581252 0.363545540363007
  430000    133.62068    -94.12182   -1302.7486   -1302.7486            0    358.06978   -944.67878   0.36354554 
431000 137.376003611054 -58.6472650932252 -908.653925401768 -1276.78702860297 368.133103201207 0.359615710961732
432000 142.564501827521 -77.7313376514012 -889.434299286318 -1271.47127142514 382.036972138826 0.356497815295687
  432000     142.5645   -77.731338   -1271.4713   -1271.4713            0    382.03697    -889.4343   0.35649782 
433000 141.320479799801 26.6571777404882 -910.682074427509 -1289.38538073331 378.703306305803 0.363930017094652
434000 144.240410707561 -3.09860270370118 -907.454540166759 -1293.98252616881 386.52798600205 0.364554415181586
  434000    144.24041   -3.0986027   -1293.9825   -1293.9825            0    386.52799   -907.45454   0.36455442 
435000 132.191927157244 -58.8751612559119 -935.102737481084 -1289.34382095535 354.241083474263 0.361853003500248
436000 146.450002163278 79.1628604339913 -897.484276120068 -1289.93341092554 392.449134805467 0.36569685731354
  436000       146.45     79.16286   -1289.9334   -1289.9334            0    392.44913   -897.48428   0.36569686 
437000 138.489599057385 -60.4998671732437 -931.150316280105 -1302.26757491306 371.117258632959 0.364077696989188
438000 136.590673827598 21.1996776821131 -893.141113007089 -1259.16973010723 366.028617100137 0.356749327377739
  438000    136.59067    21.199678   -1259.1697   -1259.1697            0    366.02862   -893.14111   0.35674933 
439000 145.117909968281 -88.1258597586229 -870.975302575407 -1259.85476567254 388.879463097133 0.353516496793471
440000 132.403353087295 -39.209987450954 -927.03463383695 -1281.84228557409 354.80765173714 0.359087070849732
  440000    132.40335   -39.209987   -1281.8423   -1281.8423            0    354.80765   -927.03463   0.35908707 
441000 131.536653335181 12.2522045270196 -957.073515708508 -1309.55863031469 352.485114606181 0.36911077507058
442000 140.387117774738 71.1296349294961 -916.520126729002 -1292.72225779557 376.202131066572 0.366542619630443
  442000    140.38712    71.129635   -1292.7223   -1292.7223            0    376.20213   -916.52013   0.36654262 
443000 138.932643748786 -25.8957402004263 -888.883852272005 -1261.18835913475 372.304506862746 0.355736279707669
444000 138.142636024861 -7.52043111234521 -932.141641866635 -1302.3291269256 370.187485058962 0.365889788689342
  444000    138.14264   -7.5204311   -1302.3291   -1302.3291            0    370.18749   -932.14164   0.36588979 
445000 137.92161400784 51.4630374120699 -906.867647605418 -1276.46284930438 369.595201698964 0.361668269178016
446000 134.081954805649 95.7437519289714 -939.063755902737 -1298.36963763182 359.305881729084 0.369358577944187
  446000    134.08195    95.743752   -1298.3696   -1298.3696            0    359.30588   -939.06376   0.36935858 
447000 135.625523509968 -47.4675792110571 -958.847665548967 -1322.28992278897 363.442257240008 0.369849725168353
448000 130.58885600261 -22.4961352526941 -898.528278166645 -1248.47353454378 349.945256377135 0.352790596716532
  448000    130.58886   -22.496135   -1248.4735   -1248.4735            0    349.94526   -898.52828    0.3527906 
449000 136.374159616709 98.3286109581558 -930.172234188116 -1295.62064771378 365.448413525665 0.368992989484916
450000 150.700246476513 18.4658052751255 -905.097763504671 -1308.93648300664 403.838719501965 0.369068405110306
  450000    150.70025    18.465805   -1308.9365   -1308.9365            0    403.83872   -905.09776   0.36906841 
451000 138.819292448759 -124.11190819517 -916.396271467165 -1288.39702538374 372.000753916571 0.357570343344413
452000 139.563121722278 4.15527765292608 -908.034981655468 -1282.02901075485 373.994029099387 0.360218210051065
  452000    139.56312    4.1552777    -1282.029    -1282.029            0    373.99403   -908.03498   0.36021821 
453000 144.393443229475 175.214456901598 -899.004404505241 -1285.94247913778 386.938074632538 0.367387612642552
454000 139.050398520766 -11.5366201027007 -899.04601962736 -1271.66607963248 372.620060005116 0.357993023290502
  454000     139.0504    -11.53662   -1271.6661   -1271.6661            0    372.62006   -899.04602   0.35799302 
455000 142.830240366664 85.9616474866312 -888.125130950567 -1270.87421547062 382.749084520052 0.35969271914333
456000 137.693454141592 67.547028137479 -932.51885361542 -1301.50264431552 368.9837907001 0.369857297005979
  456000    137.69345    67.547028   -1301.5026   -1301.5026            0    368.98379   -932.51885    0.3698573 
457000 133.849062501063 20.6162941006746 -887.825125204653 -1246.50691419159 358.681788986935 0.353695712467222
458000 138.006504465475 -2.25536330981963 -928.812579614151 -1298.63526636713 369.822686752975 0.364917402708678
  458000     138.0065   -2.2553633   -1298.6353   -1298.6353            0    369.82269   -928.81258    0.3649174 
459000 140.358684402649 -8.5267922147535 -912.872056999733 -1288.99799378763 376.125936787902 0.363689868406091
460000 135.366154553086 74.3891709464651 -932.010881988024 -1294.75809572362 362.747213735601 0.368446528610104
  460000    135.36615    74.389171   -1294.7581   -1294.7581            0    362.74721   -932.01088   0.36844653 
461000 133.262976409164 37.9084253750263 -910.06245659709 -1267.17368241373 357.111225816639 0.359920814061479
462000 137.453421815293 -71.0179974870661 -878.93138026065 -1247.27194475802 368.340564497368 0.35117784455717
  462000    137.45342   -71.017997   -1247.2719   -1247.2719            0    368.34056   -878.93138   0.35117784 
463000 136.298157340063 -4.14974012844185 -938.227113579037 -1303.47186013801 365.244746558972 0.365603463095229
464000 142.680009765528 67.8908960118217 -909.645470648931 -1291.99197498075 382.346504331823 0.367184025384137
  464000    142.68001    67.890896    -1291.992    -1291.992            0     382.3465   -909.64547   0.36718403 
465000 140.081633632701 70.454987442119 -936.207437613701 -1311.59094808984 375.383510476143 0.370367908922638
466000 138.277683253024 -59.8895494178537 -916.423094569998 -1286.97247220026 370.549377630266 0.361254080015555
  466000    138.27768   -59.889549   -1286.9725   -1286.9725            0    370.54938   -916.42309   0.36125408 
467000 142.685603870313 7.98433724390866 -889.083908592281 -1271.44540371653 382.361495124245 0.359745805741625
468000 141.845749835777 1.21060448123211 -890.078103718566 -1270.18900147615 380.110897757583 0.357804758857461
  468000    141.84575    1.2106045    -1270.189    -1270.189            0     380.1109    -890.0781   0.35780476 
469000 139.920178830039 44.4765302236525 -887.630229197379 -1262.58108145106 374.950852253685 0.358296804028192
470000 139.569836232898 112.503876363282 -912.202252292168 -1286.21427458954 374.01202229737 0.365249021791574
  470000    139.56984    112.50388   -1286.2143   -1286.2143            0    374.01202   -912.20225   0.36524902 
471000 138.878667063207 4.17917547160898 -895.941901083775 -1268.10176401861 372.159862934838 0.358860816788128
472000 138.991765770766 -16.9860218510075 -935.63840289693 -1308.10134189372 372.462938996793 0.365746811852455
  472000    138.99177   -16.986022   -1308.1013   -1308.1013            0    372.46294    -935.6384   0.36574681 
473000 144.002629371872 -38.8496145210688 -897.992007384572 -1283.88279927201 385.890791887434 0.358449673007046
474000 136.5620089934 -18.6619022025401 -929.218703056795 -1295.17050561809 365.951802561291 0.364248714189815
  474000    136.56201   -18.661902   -1295.1705   -1295.1705            0     365.9518    -929.2187   0.36424871 
475000 147.75419891227 20.7872413444034 -875.524941036109 -1271.46899477772 395.944053741606 0.35950568960332
476000 138.45775396167 -86.4119278609576 -904.535793481354 -1275.56771527528 371.031921793925 0.357276201008781
  476000    138.45775   -86.411928   -1275.5677   -1275.5677            0    371.03192   -904.53579    0.3572762 
477000 136.767797018277 34.1960099398374 -925.44505302982 -1291.94831568755 366.503262657727 0.364415422260907
478000 141.125737339619 -64.9866329799876 -924.10914096163 -1302.29058650349 378.181445541861 0.364257151396662
  478000    141.12574   -64.986633   -1302.2906   -1302.2906            0    378.18145   -924.10914   0.36425715 
479000 135.2162766381 -2.51654947958175 -906.452170917541 -1268.797749575 362.345578657459 0.359130095401516
480000 141.514400694608 68.32234506602 -893.502550055095 -1272.72551553648 379.222965481382 0.360884451034272
  480000     141.5144    68.322345   -1272.7255   -1272.7255            0    379.22297   -893.50255   0.36088445 
481000 142.400525952044 -56.8935728237392 -899.670906176383 -1281.26846425232 381.597558075941 0.358296122671433
482000 143.220819542531 -18.5399205574739 -908.278635648917 -1292.07437402611 383.79573837719 0.363650332529258
  482000    143.22082   -18.539921   -1292.0744   -1292.0744            0    383.79574   -908.27864   0.36365033 
483000 140.346791413721 -53.2766023376195 -930.956048375837 -1307.05011494765 376.094066571814 0.365814903296997
484000 145.165693742736 94.9269528346564 -910.669098502994 -1299.67661008538 389.007511582389 0.368644490201357
  484000    145.16569    94.926953   -1299.6766   -1299.6766            0    389.00751    -910.6691   0.36864449 
485000 140.00251829702 -133.109135732284 -898.011237562637 -1273.18273885763 375.171501294993 0.356397355675378
486000 142.300050002792 69.9992748341407 -931.876660585261 -1313.20496841354 381.328307828279 0.370808266719359
  486000    142.30005    69.999275    -1313.205    -1313.205            0    381.32831   -931.87666   0.37080827 
487000 141.550406701525 -24.4149910645294 -865.268456900995 -1244.58790941586 379.319452514865 0.35001839364076
488000 139.533709244306 23.3638203570239 -944.514246787456 -1318.42945785091 373.915211063455 0.370064504173739
  488000    139.53371     23.36382   -1318.4295   -1318.4295            0    373.91521   -944.51425    0.3700645 
489000 138.411157921756 36.946052921558 -932.927104952026 -1303.83416109024 370.907056138212 0.367771681703924
490000 142.518449196202 -83.148608271436 -924.004620774724 -1305.91818345606 381.913562681334 0.365196303579653
  490000    142.51845   -83.148608   -1305.9182   -1305.9182            0    381.91356   -924.00462    0.3651963 
491000 139.417580173046 24.0496000163919 -939.431955003678 -1313.0359693934 373.60401438972 0.370002469786654
492000 137.953902313092 84.3399152102695 -914.63175096363 -1284.3134771916 369.681726227974 0.365242011090645
  492000     137.9539    84.339915   -1284.3135   -1284.3135            0    369.68173   -914.63175   0.36524201 
493000 138.434542786894 138.732837487524 -938.464888161812 -1309.4346098511 370.96972168929 0.372029981337598
494000 133.428843902601 47.8967561683312 -969.19568816511 -1326.75139710453 357.555708939415 0.372649977184488
  494000    133.42884    47.896756   -1326.7514   -1326.7514            0    357.55571   -969.19569   0.37264998 
495000 141.612310798708 61.5844556271876 -902.657297750695 -1282.14263766072 379.485339910029 0.361119098452431
496000 141.21750688314 68.1627397538937 -901.195056858712 -1279.62242167284 378.427364814133 0.362443809267271
  496000    141.21751     68.16274   -1279.6224   -1279.6224            0    378.42736   -901.19506   0.36244381 
497000 140.072571497415 -3.17784064478621 -878.550782495694 -1253.9100087308 375.359226235107 0.356406709891844
498000 139.089588555772 8.23188975796394 -941.528738949549 -1314.2538183818 372.725079432253 0.369712639921886
  498000    139.08959    8.2318898   -1314.2538   -1314.2538            0    372.72508   -941.52874   0.36971264 
499000 144.169929740157 -70.6393109877112 -898.70492257044 -1285.04403732449 386.339114754052 0.357543065685832
500000 135.916328406892 37.0060363391026 -929.279208558925 -1293.50074970818 364.221541149255 0.364967695004937
  500000    135.91633    37.006036   -1293.5007   -1293.5007            0    364.22154   -929.27921    0.3649677 
501000 139.101719987795 12.1579633761923 -922.780700499352 -1295.53828911515 372.757588615802 0.36431817099685
502000 145.948123608443 28.2921651267113 -882.630738988111 -1273.7349656221 391.10422663399 0.360124597746982
  502000    145.94812    28.292165    -1273.735    -1273.735            0    391.10423   -882.63074    0.3601246 
503000 138.257508249537 59.712125382736 -929.023875189012 -1299.51918888929 370.495313700282 0.367340104593264
504000 138.485259189628 -64.5498020994617 -903.485781027253 -1274.59140990725 371.10562888 0.35822800063493
  504000    138.48526   -64.549802   -1274.5914   -1274.5914            0    371.10563   -903.48578     0.358228 
505000 136.822976617184 -54.312445430064 -920.992069321088 -1287.64319941159 366.651130090503 0.361694867155392
506000 134.383022036492 -86.5213916360237 -940.663371598308 -1300.77603770785 360.112666109537 0.363118112628689
  506000    134.38302   -86.521392    -1300.776    -1300.776            0    360.11267   -940.66337   0.36311811 
507000 141.79473247913 10.6349906608083 -900.902690749742 -1280.8768748359 379.974184086155 0.361088524451475
508000 140.012145427819 32.0626969446697 -915.078880644853 -1290.27618022661 375.197299581759 0.363374145932423
  508000    140.01215    32.062697   -1290.2762   -1290.2762            0     375.1973   -915.07888   0.36337415 
509000 136.506453892636 115.217710179615 -945.795413887192 -1311.59834276527 365.802928878076 0.370571237359422
510000 145.317778934275 40.5954315086296 -895.606196872509 -1285.02125847849 389.415061605978 0.362535992889082
  510000    145.31778    40.595432   -1285.0213   -1285.0213            0    389.41506    -895.6062   0.36253599 
511000 134.992870337027 49.7358741184822 -909.019551974159 -1270.76645799064 361.746906016483 0.361568204668492
512000 141.820692439859 67.4950275089261 -879.015165736338 -1259.05891598144 380.043750245099 0.358638370907523
  512000    141.82069    67.495028   -1259.0589   -1259.0589            0    380.04375   -879.01517   0.35863837 
513000 144.691750179636 -12.8997339549191 -911.563257067764 -1299.30071922347 387.737462155705 0.363822078663749
514000 140.007117330244 -25.9596154498298 -892.946509064667 -1268.13033461083 375.183825546159 0.35643028028721
  514000    140.00712   -25.959615   -1268.1303   -1268.1303            0    375.18383   -892.94651   0.35643028 
515000 139.138106320435 -89.9635466740645 -895.107946918636 -1267.96304174511 372.855094826471 0.355254388543874
516000 140.978517251872 -26.4367945733054 -879.89610487041 -1257.68303764198 377.786932771571 0.353379471395347
  516000    140.97852   -26.436795    -1257.683    -1257.683            0    377.78693    -879.8961   0.35337947 
517000 137.374519195872 52.7469861291528 -921.092055421643 -1289.22118076389 368.129125342242 0.364552222327427
518000 134.366647980984 -0.347483072254594 -922.109571363259 -1282.17835912645 360.068787763189 0.361605444932581
  518000    134.36665  -0.34748307   -1282.1784   -1282.1784            0    360.06879   -922.10957   0.36160544 
519000 141.391915522829 120.78929076394 -922.239844477967 -1301.13458053647 378.894736058502 0.370194881685093
520000 136.704523094281 69.064200336424 -899.82856358601 -1266.16226805759 366.333704471581 0.35998604101095
  520000    136.70452      69.0642   -1266.1623   -1266.1623            0     366.3337   -899.82856   0.35998604 
521000 136.330450644296 4.38539284769837 -919.885858656402 -1285.21714314039 365.331284483989 0.362584070603145
522000 142.179292334298 -71.7665394766824 -911.729385475421 -1292.7340931547 381.004707679276 0.360881534998199
  522000    142.17929   -71.766539   -1292.7341   -1292.7341            0    381.00471   -911.72939   0.36088153 
523000 138.652581606257 38.7462614795873 -934.057897179863 -1305.61190801049 371.554010830629 0.368663178780236
524000 138.038165949808 11.5667784602304 -924.695804039539 -1294.60333559927 369.907531559734 0.363948709738499
  524000    138.03817    11.566778   -1294.6033   -1294.6033            0    369.90753    -924.6958   0.36394871 
525000 136.173103826208 -42.6152180638955 -936.105034981504 -1301.01466960745 364.909634625943 0.363896365828116
526000 143.440739049622 44.0131504801347 -936.663249830407 -1321.04831711856 384.385067288149 0.371480884532228
  526000    143.44074     44.01315   -1321.0483   -1321.0483            0    384.38507   -936.66325   0.37148088 
527000 135.878952657799 -93.0120695873222 -909.885521660019 -1274.00690521161 364.121383551591 0.356158612811772
528000 141.252633131774 35.3005708105239 -895.75888970702 -1274.28038402393 378.521494316911 0.361597614234735
  528000    141.25263    35.300571   -1274.2804   -1274.2804            0    378.52149   -895.75889   0.36159761 
529000 137.812272306942 31.2706748805278 -919.368999666657 -1288.67119313563 369.302193468978 0.364077033939004
530000 140.9939971577 -37.3635022588505 -935.844500822295 -1313.67291584419 377.828415021891 0.367305542322477
  530000      140.994   -37.363502   -1313.6729   -1313.6729            0    377.82842    -935.8445   0.36730554 
531000 138.775069507883 66.7518474184935 -929.723157743995 -1301.60540531281 371.882247568814 0.368720027732249
532000 141.050132471256 94.7165438083455 -947.451221091109 -1325.43006462042 377.978843529311 0.374521191114834
  532000    141.05013    94.716544   -1325.4301   -1325.4301            0    377.97884   -947.45122   0.37452119 
533000 137.009321609595 12.7213524074438 -929.800046303238 -1296.95053405825 367.150487755009 0.366320470484807
534000 137.994465632534 -80.9634280335765 -942.694873137033 -1312.48529884869 369.790425711652 0.366039544508196
  534000    137.99447   -80.963428   -1312.4853   -1312.4853            0    369.79043   -942.69487   0.36603954 
535000 140.221837335656 -9.44922327863725 -898.378706214521 -1274.13792731619 375.759221101671 0.356524566339449
536000 134.356839582058 -57.1324136962345 -914.227091089942 -1274.26959481342 360.042503723481 0.357002687044971
  536000    134.35684   -57.132414   -1274.2696   -1274.2696            0     360.0425   -914.22709   0.35700269 
537000 137.500125975927 22.604521709557 -893.116192317926 -1261.58191220732 368.465719889392 0.357654726817751
538000 136.421730916648 79.227501886744 -931.276583641067 -1296.85247627378 365.575892632711 0.367605623019423
  538000    136.42173    79.227502   -1296.8525   -1296.8525            0    365.57589   -931.27658   0.36760562 
539000 139.992321729788 -34.9039539659191 -911.524421154751 -1286.6685982167 375.144177061952 0.36088781467742
540000 144.633229463656 107.384901669815 -904.668834268018 -1292.24947563837 387.580641370351 0.366120333971718
  540000    144.63323     107.3849   -1292.2495   -1292.2495            0    387.58064   -904.66883   0.36612033 
541000 136.581691223714 75.0398146038006 -936.602637040211 -1302.60718302344 366.004545983232 0.368295106514302
542000 138.135464506945 -21.3526326574215 -906.826074039284 -1276.99434123577 370.168267196486 0.360386219441631
  542000    138.13546   -21.352633   -1276.9943   -1276.9943            0    370.16827   -906.82607   0.36038622 
543000 140.969873308881 24.24939275262 -905.751900827859 -1283.51567000846 377.763769180598 0.363538437420325
544000 141.112914118481 62.7212237156644 -904.25864837149 -1282.40573090914 378.14708253765 0.363672519084269
  544000    141.11291    62.721224   -1282.4057   -1282.4057            0    378.14708   -904.25865   0.36367252 
545000 138.741385665395 -12.9799076814978 -912.224756321013 -1284.01673967237 371.79198335136 0.361835015809459
546000 147.501594657626 66.5173631764962 -885.659096673382 -1280.92623460947 395.267137936085 0.362413684724157
  546000    147.50159    66.517363   -1280.9262   -1280.9262            0    395.26714    -885.6591   0.36241368 
547000 146.308814610602 99.2823940650189 -896.803392455889 -1288.87418016628 392.070787710387 0.364843234587623
548000 141.21932992597 126.396529716433 -872.841059889052 -1251.27330999899 378.432250109939 0.356840291750164
  548000    141.21933    126.39653   -1251.2733   -1251.2733            0    378.43225   -872.84106   0.35684029 
549000 137.617384509255 48.4915534858957 -904.938399921515 -1273.71834315863 368.77994323711 0.360232742102301
550000 143.988356197213 75.1691601187205 -875.699849231554 -1261.55239260439 385.852543372834 0.359542272272796
  550000    143.98836     75.16916   -1261.5524   -1261.5524            0    385.85254   -875.69985   0.35954227 
551000 136.680084940756 22.9302622016831 -899.41154918825 -1265.67976556106 366.268216372808 0.357536870848521
552000 137.278379778739 -49.9946846987664 -911.622015416013 -1279.49351132488 367.87149590887 0.358405899469115
  552000    137.27838   -49.994685   -1279.4935   -1279.4935            0     367.8715   -911.62202    0.3584059 
553000 138.166279387723 -90.8339651737696 -905.836687396503 -1276.08753071536 370.250843318859 0.35727565164811
554000 131.692416690871 -59.3393695976192 -951.56853121662 -1304.47105240028 352.90252118366 0.366085208974004
  554000    131.69242    -59.33937   -1304.4711   -1304.4711            0    352.90252   -951.56853   0.36608521 
555000 142.875987249737 65.6416092424489 -911.828914515014 -1294.70058916423 382.87167464922 0.364490064297103
556000 152.678667320021 37.0808438320294 -884.442114045874 -1293.58250331122 409.140389265344 0.364492295835675
  556000    152.67867    37.080844   -1293.5825   -1293.5825            0    409.14039   -884.44211    0.3644923 
557000 142.042178536143 50.5199117148189 -929.253907361322 -1309.89118458201 380.637277220683 0.368211358002997
558000 138.068983847729 95.1635663136398 -948.556641831471 -1318.54675759876 369.990115767292 0.371459699614386
  558000    138.06898    95.163566   -1318.5468   -1318.5468            0    369.99012   -948.55664    0.3714597 
559000 138.528518590272 29.6432793185133 -895.555054151411 -1266.77660733393 371.221553182519 0.35833098378506
560000 141.13156986796 -41.7822394504815 -916.267547218727 -1294.46462246812 378.197075249389 0.363473142687371
  560000    141.13157   -41.782239   -1294.4646   -1294.4646            0    378.19708   -916.26755   0.36347314 
561000 135.99234049304 16.958929016563 -906.066187564492 -1270.49142196743 364.425234402943 0.35851921732403
562000 137.355278305628 -86.8144471194907 -937.36953939644 -1305.44710399701 368.077564600573 0.364322462302511
  562000    137.35528   -86.814447   -1305.4471   -1305.4471            0    368.07756   -937.36954   0.36432246 
563000 135.130616256774 -18.956686442898 -924.047741827633 -1286.16377222943 362.116030401795 0.362100008123655
564000 139.632072363415 52.4326400299886 -953.284930010564 -1327.46372946884 374.178799458273 0.374474280154643
  564000    139.63207     52.43264   -1327.4637   -1327.4637            0     374.1788   -953.28493   0.37447428 
565000 139.248861070916 26.7172969970593 -898.77915088925 -1271.93104056283 373.151889673584 0.358961640110436
566000 137.690351321978 150.384911936934 -913.718829934082 -1282.6943058588 368.975475924716 0.365369200765413
  566000    137.69035    150.38491   -1282.6943   -1282.6943            0    368.97548   -913.71883    0.3653692 
567000 141.706707503657 127.766591750472 -894.348922647016 -1274.08722196052 379.738299313502 0.363440155811481
568000 137.132776763229 110.038551286052 -919.786325189208 -1287.26764167426 367.481316485056 0.366595903855098
  568000    137.13278    110.03855   -1287.2676   -1287.2676            0    367.48132   -919.78633    0.3665959 
569000 132.157074070083 25.8538730788063 -919.876955400624 -1274.02464137609 354.147685975461 0.359345298215432
570000 137.951458385732 64.5414852401203 -899.921616841225 -1269.59679395917 369.675177117943 0.360812713705783
  570000    137.95146    64.541485   -1269.5968   -1269.5968            0    369.67518   -899.92162   0.36081271 
571000 139.730176137716 -17.9912976648433 -901.667595447738 -1276.10928832204 374.441692874298 0.359166530676459
572000 144.463267982043 -14.493949853205 -895.671026260806 -1282.7962136508 387.125187389989 0.361183165345619
  572000    144.46327    -14.49395   -1282.7962   -1282.7962            0    387.12519   -895.67103   0.36118317 
573000 132.044469112421 -90.0386425048055 -925.937743323346 -1279.78367636227 353.84593303892 0.358487030310524
574000 139.930862828117 -45.0050965335308 -888.665021449789 -1263.64450412847 374.979482678678 0.356116044686089
  574000    139.93086   -45.005097   -1263.6445   -1263.6445            0    374.97948   -888.66502   0.35611604 
575000 139.89893380578 -7.1770850447649 -917.198115311347 -1292.09203624877 374.893920937427 0.361438764806022
576000 145.350278913971 39.2770331359699 -914.10809158463 -1303.61024495384 389.502153369205 0.367379146247564
  576000    145.35028    39.277033   -1303.6102   -1303.6102            0    389.50215   -914.10809   0.36737915 
577000 137.281638713232 41.3909250254532 -908.569995593575 -1276.4502246264 367.880229032827 0.360558344593501
578000 139.833815669927 -9.17051067520427 -894.551479142424 -1269.27089987023 374.719420727809 0.358254805088773
  578000    139.83382   -9.1705107   -1269.2709   -1269.2709            0    374.71942   -894.55148   0.35825481 
579000 139.975723159433 -26.6032211322972 -929.637429694948 -1304.73712676729 375.099697072341 0.365200858633628
580000 135.863306911924 -58.8964663192395 -944.088991918385 -1308.16844881008 364.079456891697 0.366272289414897
  580000    135.86331   -58.896466   -1308.1684   -1308.1684            0    364.07946   -944.08899   0.36627229 
581000 135.102029941318 -23.0246176772202 -893.849873554446 -1255.88929982785 362.039426273409 0.355434349433944
582000 139.096284157803 -15.7062795968509 -926.712863922871 -1299.45588588285 372.743021959975 0.366672893060237
  582000    139.09628    -15.70628   -1299.4559   -1299.4559            0    372.74302   -926.71286   0.36667289 
583000 136.235508498281 -50.2102577800895 -935.84585454981 -1300.92271798559 365.076863435784 0.364465002965217
584000 143.493135871533 12.767782980584 -870.400964925923 -1254.9264425051 384.525477579182 0.35391993168235
  584000    143.49314    12.767783   -1254.9264   -1254.9264            0    384.52548   -870.40096   0.35391993 
585000 139.406379816068 89.1374510841648 -936.823111091638 -1310.39711134452 373.574000252879 0.372666170319301
586000 137.927016427683 58.6954209965619 -931.305906719585 -1300.91558554359 369.609678824002 0.366816145782726
  586000    137.92702    58.695421   -1300.9156   -1300.9156            0    369.60968   -931.30591   0.36681615 
587000 143.082961514523 -34.9780353408981 -882.488955266007 -1265.91526883597 383.426313569963 0.356398657147098
588000 147.374460030065 22.3173470504012 -880.587207766314 -1275.51365690859 394.926449142277 0.359192919918778
  588000    147.37446    22.317347   -1275.5137   -1275.5137            0    394.92645   -880.58721   0.35919292 
589000 139.088708512131 16.2123941709564 -952.348398105628 -1325.07111924249 372.722721136857 0.371993815490487
590000 137.510555921653 9.26976162544578 -911.648581759662 -1280.14225127771 368.493669518044 0.361779413810479
  590000    137.51056    9.2697616   -1280.1423   -1280.1423            0    368.49367   -911.64858   0.36177941 
591000 138.283472316951 16.6192924627923 -893.671523407171 -1264.23641427128 370.564890864108 0.357513898082594
592000 142.881901023109 101.618163433437 -923.966494967726 -1306.8540170407 382.887522072978 0.371351347055334
  592000     142.8819    101.61816    -1306.854    -1306.854            0    382.88752   -923.96649   0.37135135 
593000 143.557768282489 10.6628849177479 -912.705716837613 -1297.40439300597 384.698676168361 0.364511073403736
594000 137.251821458713 18.658908796179 -921.195172999943 -1288.9954992976 367.800326297659 0.363064834922377
  594000    137.25182    18.658909   -1288.9955   -1288.9955            0    367.80033   -921.19517   0.36306483 
595000 148.985809406226 -68.2542189508833 -868.367005508836 -1267.61146529777 399.244459788931 0.357241171591078
596000 145.617821224779 59.0009558105778 -903.926973162227 -1294.14607256659 390.219099404366 0.36564264236127
  596000    145.61782    59.000956   -1294.1461   -1294.1461            0     390.2191   -903.92697   0.36564264 
597000 142.964451170794 130.294962199145 -902.689522967173 -1285.7982586527 383.10873568553 0.368265072018345
598000 142.342626430483 -49.398564658488 -877.421682891892 -1258.86408482713 381.442401935234 0.353816886073785
  598000    142.34263   -49.398565   -1258.8641   -1258.8641            0     381.4424   -877.42168   0.35381689 
599000 136.64457979806 19.409423648829 -911.756086356596 -1277.92915788593 366.173071529336 0.360913899730146
600000 143.963885205325 36.9784710981293 -901.540379509377 -1287.32734678489 385.786967275513 0.363988095241919
  600000    143.96389    36.978471   -1287.3273   -1287.3273            0    385.78697   -901.54038    0.3639881 
601000 143.933443348532 -47.4196175402946 -930.670598153021 -1316.37598891653 385.705390763505 0.367619091379734
602000 137.080213431542 23.2503824797924 -923.917124728339 -1291.25758471808 367.340459989743 0.364736085609282
  602000    137.08021    23.250382   -1291.2576   -1291.2576            0    367.34046   -923.91712   0.36473609 
603000 140.15544950059 40.1078469726098 -922.907640544262 -1298.48895896209 375.581318417831 0.366633740219383
604000 142.260620935506 79.8392747816285 -922.003825645331 -1303.22647350015 381.222647854814 0.37028968120591
  604000    142.26062    79.839275   -1303.2265   -1303.2265            0    381.22265   -922.00383   0.37028968 
605000 139.673670583186 -35.7442490096268 -920.260001797367 -1294.55027401165 374.29027221428 0.363630232572718
606000 139.050163590893 24.0148095394236 -969.405373043347 -1342.02480349555 372.619430452204 0.375790152350896
  606000    139.05016     24.01481   -1342.0248   -1342.0248            0    372.61943   -969.40537   0.37579015 
607000 134.840401447534 39.944023422195 -909.898770655809 -1271.23709843479 361.338327778978 0.359980407118022
608000 135.173130337792 60.1961247050846 -924.1283590047 -1286.35831644006 362.229957435364 0.363461684073534
  608000    135.17313    60.196125   -1286.3583   -1286.3583            0    362.22996   -924.12836   0.36346168 
609000 141.827546076254 -56.6395548896303 -886.032755610586 -1266.09487187572 380.062116265132 0.353651787065921
610000 138.234328220776 -37.3925167698933 -907.941071429367 -1278.37426848849 370.433197059124 0.357808105694589
  610000    138.23433   -37.392517   -1278.3743   -1278.3743            0     370.4332   -907.94107   0.35780811 
611000 141.444485852312 26.3605217398919 -952.074553167845 -1331.11016447399 379.035611306144 0.373809786202189
612000 142.955715992856 -57.6103142186537 -879.946361277292 -1263.03168888516 383.085327607869 0.35641738228948
  612000    142.95572   -57.610314   -1263.0317   -1263.0317            0    383.08533   -879.94636   0.35641738 
613000 140.042213280825 -34.6991227654198 -913.446969584127 -1288.72484344191 375.277873857781 0.360420286950491
614000 148.741791346011 56.5754754354867 -876.61051434848 -1275.20106717125 398.590552822774 0.360894128864053
  614000    148.74179    56.575475   -1275.2011   -1275.2011            0    398.59055   -876.61051   0.36089413 
615000 138.462507781352 -31.8391339584428 -894.17853731358 -1265.22319814741 371.044660833827 0.35723266885893
616000 137.130632204611 26.9820835103453 -906.75461604782 -1274.2301856557 367.475569607884 0.360140949168991
  616000    137.13063    26.982084   -1274.2302   -1274.2302            0    367.47557   -906.75462   0.36014095 
617000 137.764532119097 119.657645185168 -909.042051692256 -1278.21631347712 369.174261784862 0.364335677594878
618000 142.748479187248 -28.3784325286344 -913.439026283922 -1295.96901142775 382.529985143826 0.363984280993039
  618000    142.74848   -28.378433    -1295.969    -1295.969            0    382.52999   -913.43903   0.36398428 
619000 140.611280179443 5.73750817455581 -906.053392370398 -1282.85622224532 376.802829874921 0.362038803172816
620000 138.19405978442 -78.4949979676059 -897.43602480909 -1267.76131259697 370.325287787875 0.355604539318308
  620000    138.19406   -78.494998   -1267.7613   -1267.7613            0    370.32529   -897.43602   0.35560454 
621000 143.598766963596 4.89534500459604 -903.397115536275 -1288.20565784797 384.808542311693 0.363412086684968
622000 139.456376544727 120.978662382716 -917.78202835896 -1291.49000725722 373.707978898256 0.367886624215281
  622000    139.45638    120.97866     -1291.49     -1291.49            0    373.70798   -917.78203   0.36788662 
623000 130.939124459025 -20.0962628275251 -926.860479655053 -1277.74436731003 350.883887654972 0.361021455819852
624000 142.36853825905 -11.4557807135718 -904.674556136899 -1286.186395249 381.511839112101 0.36125045651705
  624000    142.36854   -11.455781   -1286.1864   -1286.1864            0    381.51184   -904.67456   0.36125046 
625000 143.564292762269 -57.8830313003204 -877.409175023791 -1262.12533515533 384.716160131534 0.353095269042958
626000 133.25981844196 -85.242931788545 -924.541584257382 -1281.64434751698 357.102763259599 0.360151564622509
  626000    133.25982   -85.242932   -1281.6443   -1281.6443            0    357.10276   -924.54158   0.36015156 
627000 141.398931934957 17.8873743150518 -905.196794095571 -1284.11033237209 378.913538276516 0.361567389468908
628000 141.879561193544 17.7286762803398 -927.019467018625 -1307.2209707025 380.201503683879 0.3671786219899
  628000    141.87956    17.728676    -1307.221    -1307.221            0     380.2015   -927.01947   0.36717862 
629000 140.088871966049 -45.450581875249 -875.724033045402 -1251.12694043256 375.402907387156 0.352549844399621
630000 138.120307999952 59.1613596517448 -920.030215446543 -1290.15786702016 370.12765157362 0.365658167273716
  630000    138.12031     59.16136   -1290.1579   -1290.1579            0    370.12765   -920.03022   0.36565817 
631000 141.685410902994 4.94974177082643 -915.654613112572 -1295.33584289804 379.681229785465 0.36467473505245
632000 140.195429573165 -6.16915060425769 -921.025281415139 -1296.71373636189 375.688454946747 0.364123942525262
  632000    140.19543   -6.1691506   -1296.7137   -1296.7137            0    375.68845   -921.02528   0.36412394 
633000 140.590884593477 -55.1157067788223 -905.36831560622 -1282.11649044565 376.748174839428 0.359347951209826
634000 141.2455923079 -2.3794590961807 -899.953227135987 -1278.45585381755 378.502626681563 0.360732640160144
  634000    141.24559   -2.3794591   -1278.4559   -1278.4559            0    378.50263   -899.95323   0.36073264 
635000 142.583701494816 66.4079056081887 -918.596111302113 -1300.68453371549 382.088422413372 0.36858453756175
636000 142.008040564679 54.6598107344771 -889.993974492231 -1270.53977054414 380.545796051906 0.36160007809564
  636000    142.00804    54.659811   -1270.5398   -1270.5398            0     380.5458   -889.99397   0.36160008 
637000 141.559356538933 -7.68824416087748 -880.665593493166 -1260.00902931903 379.343435825864 0.354815593112163
638000 138.70211756086 -20.6788561979626 -902.255922186173 -1273.94267690371 371.686754717542 0.359043642549169
  638000    138.70212   -20.678856   -1273.9427   -1273.9427            0    371.68675   -902.25592   0.35904364 
639000 137.705065184862 15.386772145013 -912.307648854108 -1281.32255422692 369.014905372808 0.362663853996274
640000 142.78169365281 -52.6438645536406 -911.321776418415 -1293.9407679677 382.61899154929 0.362053073281594
  640000    142.78169   -52.643865   -1293.9408   -1293.9408            0    382.61899   -911.32178   0.36205307 
641000 140.992728770846 7.56327747413749 -896.461477414538 -1274.286493479 377.825016064459 0.357280963356231
642000 142.831533413093 -44.9713777815267 -911.334164158198 -1294.08671371714 382.752549558938 0.362749453406243
  642000    142.83153   -44.971378   -1294.0867   -1294.0867            0    382.75255   -911.33416   0.36274945 
643000 142.849336715914 97.128007145976 -912.381646851145 -1295.18190477939 382.800257928248 0.367375691065711
644000 140.364659517002 38.2459135710191 -930.654085876962 -1306.79603446701 376.141948590044 0.367734215286599
  644000    140.36466    38.245914    -1306.796    -1306.796            0    376.14195   -930.65409   0.36773422 
645000 147.047567545625 139.429205534253 -875.897638462176 -1269.94809804625 394.050459584079 0.362842132729418
646000 143.279934172867 -67.7302983619418 -906.413550184514 -1290.36770088801 383.954150703493 0.35971760309825
  646000    143.27993   -67.730298   -1290.3677   -1290.3677            0    383.95415   -906.41355    0.3597176 
647000 142.06466526544 82.693975934794 -908.451885834551 -1289.14942182838 380.697535993826 0.366639312349858
648000 139.171323134159 -45.795155288563 -909.841220174231 -1282.78532769865 372.944107524418 0.361332997318672
  648000    139.17132   -45.795155   -1282.7853   -1282.7853            0    372.94411   -909.84122     0.361333 
649000 136.748532842404 48.4284515603822 -946.52349008874 -1312.97512960517 366.451639516435 0.369291611119202
650000 131.404418535239 56.5959739569728 -955.118006540769 -1307.24876517521 352.130758634438 0.368657659320233
  650000    131.40442    56.595974   -1307.2488   -1307.2488            0    352.13076   -955.11801   0.36865766 
651000 146.659666858484 99.4575234583968 -898.981248247286 -1291.99223164966 393.010983402378 0.365921278164188
652000 138.428738346899 115.048333087708 -931.488539271329 -1302.44270652279 370.954167251459 0.369328541133868
  652000    138.42874    115.04833   -1302.4427   -1302.4427            0    370.95417   -931.48854   0.36932854 
653000 139.444684892557 9.12800714054467 -916.575921659062 -1290.25256987305 373.676648213989 0.363503689943947
654000 136.437391086483 -51.9264129446343 -886.533263183741 -1252.15112112893 365.617857945185 0.351732181685389
  654000    136.43739   -51.926413   -1252.1511   -1252.1511            0    365.61786   -886.53326   0.35173218 
655000 136.041642643705 -1.41854058997397 -951.569630947916 -1316.12698270208 364.557351754167 0.368437924279225
[...]
3091000 131.015889486331 -56.7704013017127 -895.720405983796 -1246.81000458519 351.089598601399 0.351449021414505
3092000 134.58129394864 -7.6613627388532 -935.925978351422 -1296.56996326758 360.643984916156 0.364665286114918
 3092000    134.58129   -7.6613627     -1296.57     -1296.57            0    360.64398   -935.92598   0.36466529 
3093000 142.173980754937 -18.9690305395885 -880.200127145432 -1261.19060112929 380.990473983858 0.356190491003443
3094000 137.799304325941 -15.9174897413911 -953.963676528401 -1323.23111907318 369.267442544778 0.370980008474638
 3094000     137.7993    -15.91749   -1323.2311   -1323.2311            0    369.26744   -953.96368   0.37098001 
3095000 139.097051460252 -7.76293575755951 -939.566260561328 -1312.31133869869 372.745078137361 0.368671576611824
3096000 136.095118396889 92.1318131165122 -928.955678249127 -1293.6563315585 364.700653309375 0.36655498396956
 3096000    136.09512    92.131813   -1293.6563   -1293.6563            0    364.70065   -928.95568   0.36655498 
3097000 139.379395103029 32.8331529214538 -954.421450162173 -1327.92313817791 373.501688015739 0.373840310782777
3098000 140.021767156688 -59.5924850097553 -896.988928463903 -1272.21201185662 375.223083392715 0.358402769462936
 3098000    140.02177   -59.592485    -1272.212    -1272.212            0    375.22308   -896.98893   0.35840277 
3099000 138.838552616561 -32.4143914385052 -899.371753301411 -1271.42411961865 372.052366317243 0.35890027922073
3100000 139.197669222727 -77.9108441154755 -902.754700954477 -1275.76940936323 373.014708408757 0.35800761931036
 3100000    139.19767   -77.910844   -1275.7694   -1275.7694            0    373.01471    -902.7547   0.35800762 
3101000 140.035629075162 46.3022363698607 -902.086345930305 -1277.34657577458 375.260229844278 0.362594073396958
3102000 140.080189402823 -60.3056040504091 -912.029825971363 -1287.40946627504 375.379640303677 0.361233284452506
 3102000    140.08019   -60.305604   -1287.4095   -1287.4095            0    375.37964   -912.02983   0.36123328 
3103000 137.842242314767 -23.7110688057081 -918.749191211045 -1288.13169675559 369.382505544547 0.363717816729817
3104000 139.771606078784 -1.36631645051589 -859.515552184664 -1234.06826687041 374.552714685747 0.347832555636589
 3104000    139.77161   -1.3663165   -1234.0683   -1234.0683            0    374.55271   -859.51555   0.34783256 
3105000 144.192577411054 40.3382844968995 -866.682747259313 -1253.08255206948 386.399804810163 0.356491405795912
3106000 139.838470413761 92.001407286311 -901.79608083734 -1276.52797510672 374.731894269385 0.362494100466987
 3106000    139.83847    92.001407    -1276.528    -1276.528            0    374.73189   -901.79608    0.3624941 
3107000 144.596150400766 -53.6886709117252 -910.677464360879 -1298.1587431779 387.481278817017 0.362740931473237
3108000 144.810326847364 -4.09671646238607 -894.633310612492 -1282.68852838425 388.055217771756 0.360686828234669
 3108000    144.81033   -4.0967165   -1282.6885   -1282.6885            0    388.05522   -894.63331   0.36068683 
3109000 135.845568219052 -79.4668791289108 -901.437191247184 -1265.46911290797 364.031921660786 0.354405170593615
3110000 143.181504146715 7.3885353711997 -915.981064590673 -1299.67144760532 383.690383014646 0.366610085417866
 3110000     143.1815    7.3885354   -1299.6714   -1299.6714            0    383.69038   -915.98106   0.36661009 
3111000 132.170939632446 -87.5620431452256 -932.802944592847 -1286.98778678458 354.184842191731 0.361906727316324
3112000 134.600342270467 -50.1834460796501 -941.568136049426 -1302.26316567237 360.695029622949 0.364402040869055
 3112000    134.60034   -50.183446   -1302.2632   -1302.2632            0    360.69503   -941.56814   0.36440204 
3113000 144.02878132083 32.1526828176729 -913.004987654342 -1298.96586018083 385.960872526493 0.36588588548304
3114000 140.524261783214 13.1408263647269 -914.774092132197 -1291.34373461342 376.569642481218 0.363326255704445
 3114000    140.52426    13.140826   -1291.3437   -1291.3437            0    376.56964   -914.77409   0.36332626 
3115000 142.388022896929 17.4436766569491 -938.967990202716 -1320.53204323878 381.564053036064 0.372008036910133
3116000 147.095426508154 83.2459505801141 -892.639618732869 -1286.81832828731 394.178709554444 0.364536208966058
 3116000    147.09543    83.245951   -1286.8183   -1286.8183            0    394.17871   -892.63962   0.36453621 
3117000 144.50854403458 48.5948796839958 -893.863125502314 -1281.10964131417 387.246515811859 0.362408472162189
3118000 146.596480145475 5.0175151621195 -856.955486272605 -1249.79714519232 392.841658919718 0.35387149110051
 3118000    146.59648    5.0175152   -1249.7971   -1249.7971            0    392.84166   -856.95549   0.35387149 
3119000 139.670976084215 -20.6147595190244 -918.025743134119 -1292.30879476954 374.283051635418 0.362425302508163
3120000 138.736680310278 12.245435565599 -919.472524804832 -1291.25189898912 371.779374184291 0.36259846363056
 3120000    138.73668    12.245436   -1291.2519   -1291.2519            0    371.77937   -919.47252   0.36259846 
3121000 141.418263295871 30.0905241479653 -898.13477040257 -1277.10011185937 378.965341456804 0.362041461623959
3122000 139.845600348425 121.38865640408 -921.404819020723 -1296.15581971994 374.751000699214 0.368853005829505
 3122000     139.8456    121.38866   -1296.1558   -1296.1558            0      374.751   -921.40482   0.36885301 
3123000 138.129603515295 135.487865442668 -923.865136866772 -1294.01769808123 370.152561214454 0.366955782587047
3124000 141.79047738468 7.8602898296233 -926.664486783914 -1306.62726828823 379.962781504314 0.367558449849677
 3124000    141.79048    7.8602898   -1306.6273   -1306.6273            0    379.96278   -926.66449   0.36755845 
3125000 144.694738461546 -29.9147798460207 -880.448328958687 -1268.19379895757 387.745469998881 0.356339852120649
3126000 139.1216892684 102.296759969248 -883.796101403515 -1256.60720266377 372.811101260258 0.357988826249289
 3126000    139.12169    102.29676   -1256.6072   -1256.6072            0     372.8111    -883.7961   0.35798883 
3127000 136.946432110152 101.826542426668 -946.130030763696 -1313.11199049358 366.98195972988 0.371789904310399
3128000 136.25665501012 -52.6179627408265 -903.520188148934 -1268.65371891249 365.133530763559 0.35530314976367
 3128000    136.25666   -52.617963   -1268.6537   -1268.6537            0    365.13353   -903.52019   0.35530315 
3129000 133.340565485614 60.3060632696773 -947.269181568796 -1304.5883265761 357.319145007308 0.368844651375917
3130000 144.747608615628 -0.0539827874619943 -881.088235537732 -1268.9753842387 387.887148700964 0.35740209825195
 3130000    144.74761 -0.053982787   -1268.9754   -1268.9754            0    387.88715   -881.08824    0.3574021 
3131000 139.310985794494 72.4224522035285 -934.301346763345 -1307.61971505528 373.318368291939 0.369314820939789
3132000 143.244832497586 44.2678224940734 -888.170512366895 -1272.03059941801 383.860087051114 0.360037119965128
 3132000    143.24483    44.267822   -1272.0306   -1272.0306            0    383.86009   -888.17051   0.36003712 
3133000 149.865584959059 123.455211592571 -861.657232045969 -1263.25926881976 401.602036773788 0.360140723317203
3134000 136.424818803924 -18.1608321127355 -899.014281861683 -1264.59844925487 365.584167393189 0.35676787972697
 3134000    136.42482   -18.160832   -1264.5984   -1264.5984            0    365.58417   -899.01428   0.35676788 
3135000 146.679845960266 36.0618264565471 -884.530846175992 -1277.59590449075 393.06505831476 0.362500461219541
3136000 140.203154280609 83.750643486692 -887.643354537493 -1263.35250975538 375.709155217885 0.359002633380211
 3136000    140.20315    83.750643   -1263.3525   -1263.3525            0    375.70916   -887.64335   0.35900263 
3137000 136.966628916491 28.5386996001594 -958.272383060641 -1325.30846514666 367.036082086017 0.37262592219925
3138000 139.054583879553 24.4044880285225 -937.415073711091 -1310.04634942403 372.631275712938 0.369692660733247
 3138000    139.05458    24.404488   -1310.0463   -1310.0463            0    372.63128   -937.41507   0.36969266 
3139000 137.006905997094 -20.1095277025912 -921.086172474995 -1288.23018699667 367.144014521674 0.363594811056081
3140000 138.268926632641 48.6464223497175 -938.042883683631 -1308.56879577588 370.525912092251 0.369053640149849
 3140000    138.26893    48.646422   -1308.5688   -1308.5688            0    370.52591   -938.04288   0.36905364 
3141000 145.940632597699 -18.559497095509 -896.12545989793 -1287.2096125091 391.084152611169 0.361580258078112
3142000 141.722453913363 -3.62071015204694 -909.312218660605 -1289.09271438772 379.780495727118 0.362585630641714
 3142000    141.72245   -3.6207102   -1289.0927   -1289.0927            0     379.7805   -909.31222   0.36258563 
3143000 138.060938829407 40.6503145085264 -934.427596747197 -1304.39615389084 369.968557143644 0.366982056306745
3144000 135.988268866575 -51.6337216504312 -898.876018202755 -1263.29034167187 364.414323469111 0.355002044435017
 3144000    135.98827   -51.633722   -1263.2903   -1263.2903            0    364.41432   -898.87602   0.35500204 
3145000 141.443132248771 -0.20636004991415 -901.174737771617 -1280.20672176106 379.031983989444 0.361216643560655
3146000 143.278562720166 -55.2317540788862 -916.448719137327 -1300.39919469287 383.950475555538 0.364043771182974
 3146000    143.27856   -55.231754   -1300.3992   -1300.3992            0    383.95048   -916.44872   0.36404377 
3147000 142.888433234008 26.2482761601815 -885.082103020446 -1267.98712977405 382.905026753603 0.356855237227371
3148000 147.006579589755 -22.1105009799293 -871.101712616631 -1265.04233479831 393.940622181683 0.356364586132914
 3148000    147.00658   -22.110501   -1265.0423   -1265.0423            0    393.94062   -871.10171   0.35636459 
3149000 140.307702388828 42.6827550829138 -884.090309766363 -1260.07962759272 375.989317826352 0.358038518420422
3150000 148.78533949226 -41.8349970122049 -884.653493043328 -1283.36074393415 398.70725089082 0.359139689361514
 3150000    148.78534   -41.834997   -1283.3607   -1283.3607            0    398.70725   -884.65349   0.35913969 
3151000 136.941671683705 -31.3166688644778 -938.270120487875 -1305.23932347339 366.96920298551 0.365341664861266
3152000 138.332609153404 -57.7329458170312 -885.615466282489 -1256.31203149735 370.696565214863 0.353675628965794
 3152000    138.33261   -57.732946    -1256.312    -1256.312            0    370.69657   -885.61547   0.35367563 
3153000 136.37029053421 7.36486353335506 -952.78575010263 -1318.2237954613 365.438045358667 0.371827484218463
3154000 143.78483052997 -16.2836586177163 -920.16372723157 -1305.47087305684 385.307145825273 0.3642028754337
 3154000    143.78483   -16.283659   -1305.4709   -1305.4709            0    385.30715   -920.16373   0.36420288 
3155000 137.598417620882 -22.7460177356581 -943.78114397472 -1312.51026072619 368.729116751473 0.367966048392613
3156000 135.643243118526 65.8844690684151 -928.414389237266 -1291.90413056703 363.489741329765 0.365992733338549
 3156000    135.64324    65.884469   -1291.9041   -1291.9041            0    363.48974   -928.41439   0.36599273 
3157000 138.85581969918 -14.2685311742818 -908.622233900612 -1280.72087165203 372.098637751414 0.36096055629017
3158000 132.993843339181 80.5342079540455 -934.915953188547 -1291.30597013593 356.390016947387 0.366266844939174
 3158000    132.99384    80.534208    -1291.306    -1291.306            0    356.39002   -934.91595   0.36626684 
3159000 141.94241458854 10.8030170424332 -890.686135236872 -1271.05607019505 380.369934958182 0.359942854427818
3160000 148.831422266747 94.0345921066841 -871.949263286405 -1270.78000441082 398.830741124413 0.362013678599581
 3160000    148.83142    94.034592     -1270.78     -1270.78            0    398.83074   -871.94926   0.36201368 
3161000 140.602616957073 -40.7063662262318 -917.530366962696 -1294.30998158276 376.779614620068 0.362709742752741
3162000 143.574874092293 -23.6867871695441 -920.182157627602 -1304.92667305959 384.74451543199 0.366602974177877
 3162000    143.57487   -23.686787   -1304.9267   -1304.9267            0    384.74452   -920.18216   0.36660297 
3163000 141.989333428999 4.71526691550209 -902.905097382643 -1283.40076302073 380.495665638088 0.362492406399397
3164000 138.484118321327 -112.795951335309 -912.329755309263 -1283.43232694945 371.102571640183 0.357676827342927
 3164000    138.48412   -112.79595   -1283.4323   -1283.4323            0    371.10257   -912.32976   0.35767683 
3165000 149.189050647255 113.713360511987 -917.736969772886 -1317.52606491873 399.789095145847 0.372703464000853
3166000 135.058952616369 -18.08735483193 -948.712571839962 -1310.63656172787 361.923989887911 0.368289930072689
 3166000    135.05895   -18.087355   -1310.6366   -1310.6366            0    361.92399   -948.71257   0.36828993 
3167000 143.850401745435 -43.9258856607116 -890.542163019393 -1276.02502319357 385.482860174177 0.357919396817801
3168000 136.243064261822 -23.6445448775747 -926.970920805738 -1292.06803178554 365.097110979798 0.362176467972445
 3168000    136.24306   -23.644545    -1292.068    -1292.068            0    365.09711   -926.97092   0.36217647 
3169000 138.009158604234 50.8707192836661 -985.536709396913 -1355.36650857354 369.829799176629 0.380993063818572
3170000 140.353233490008 5.41667255121326 -936.105669479174 -1312.21699919355 376.111329714373 0.3689017185936
 3170000    140.35323    5.4166726    -1312.217    -1312.217            0    376.11133   -936.10567   0.36890172 
3171000 138.220047086313 -46.0568126134278 -887.08804493306 -1257.48297214731 370.394927214253 0.353699697599063
3172000 144.558241236771 56.2203064422457 -887.819827124087 -1275.1995189258 387.379691801714 0.361375377067515
 3172000    144.55824    56.220306   -1275.1995   -1275.1995            0    387.37969   -887.81983   0.36137538 
3173000 140.170453059514 21.9605530900651 -917.747345113555 -1293.36886929193 375.621524178374 0.363609071855448
3174000 136.725263379413 -6.45852828314774 -942.590355149813 -1308.97963836387 366.389283214055 0.366576275887326
 3174000    136.72526   -6.4585283   -1308.9796   -1308.9796            0    366.38928   -942.59036   0.36657628 
3175000 143.919070177184 41.3686962546069 -885.412009091664 -1271.07888337462 385.666874282955 0.361060890981405
3176000 142.692595541212 62.312666006211 -906.057673690517 -1288.43790473252 382.380231041998 0.364054520805252
 3176000     142.6926    62.312666   -1288.4379   -1288.4379            0    382.38023   -906.05767   0.36405452 
3177000 131.325124335984 -66.7127721080398 -935.316166838173 -1287.23443698212 351.918270143943 0.362254404291723
3178000 143.612131085419 27.1192425568496 -889.253526711878 -1274.09788150544 384.844354793559 0.361092564897069
 3178000    143.61213    27.119243   -1274.0979   -1274.0979            0    384.84435   -889.25353   0.36109256 
3179000 135.067317728597 53.8922443187095 -930.919440504132 -1292.86584678677 361.946406282639 0.364263458970939
3180000 143.609036742397 -29.0981318960605 -849.731929998312 -1234.56799273162 384.836062733307 0.349338736828629
 3180000    143.60904   -29.098132    -1234.568    -1234.568            0    384.83606   -849.73193   0.34933874 
3181000 137.53963417518 43.7723566545664 -923.745745771834 -1292.31733768844 368.571591916608 0.366357811180681
3182000 138.764171929844 -127.066491475157 -904.565060124096 -1276.4181049274 371.853044803299 0.35698071140238
 3182000    138.76417   -127.06649   -1276.4181   -1276.4181            0    371.85304   -904.56506   0.35698071 
3183000 140.748237083187 27.8822822456051 -915.373858115842 -1292.54369801184 377.169839895993 0.365522224794858
3184000 135.775995148848 -70.5357865880787 -923.74980031938 -1287.59528366809 363.845483348706 0.359846470938236
 3184000      135.776   -70.535787   -1287.5953   -1287.5953            0    363.84548    -923.7498   0.35984647 
3185000 141.796095956447 5.38845114115893 -894.447130251098 -1274.42496811319 379.97783786209 0.361194771579286
3186000 147.866516508879 -19.2580931718697 -909.383369131345 -1305.62840575422 396.245036622873 0.365639878156204
 3186000    147.86652   -19.258093   -1305.6284   -1305.6284            0    396.24504   -909.38337   0.36563988 
3187000 140.657455287688 -31.3067765581377 -917.561819884784 -1294.48838742452 376.92656753974 0.362925369021354
3188000 136.797734729698 -56.3794343900839 -945.738588756727 -1312.32207694379 366.583488187067 0.368089322968232
 3188000    136.79773   -56.379434   -1312.3221   -1312.3221            0    366.58349   -945.73859   0.36808932 
3189000 138.333791331805 32.0413959545266 -946.048006644042 -1316.74773979939 370.699733155347 0.370911775907832
3190000 142.675991512482 -24.5875914467366 -925.653756666047 -1307.98949309136 382.335736425315 0.365179192305161
 3190000    142.67599   -24.587591   -1307.9895   -1307.9895            0    382.33574   -925.65376   0.36517919 
3191000 135.442256240412 12.1872777513927 -962.866986901295 -1325.81813399918 362.951147097889 0.372340737551665
3192000 144.359250653423 155.622667074567 -921.460466740087 -1308.3069138773 386.846447137216 0.373262621184671
 3192000    144.35925    155.62267   -1308.3069   -1308.3069            0    386.84645   -921.46047   0.37326262 
3193000 140.353199183335 2.39616121906836 -917.115337719192 -1293.22657550032 376.111237781129 0.364667694028473
3194000 139.355123567719 19.3886726405568 -905.612509979036 -1279.04915639087 373.436646411834 0.36186638948022
 3194000    139.35512    19.388673   -1279.0492   -1279.0492            0    373.43665   -905.61251   0.36186639 
3195000 144.150852775064 13.8756175352931 -928.195864355569 -1314.48385764608 386.287993290515 0.368495378384127
3196000 145.508226429798 69.0383258323063 -884.357680874383 -1274.28309382034 389.925412945957 0.359212766994978
 3196000    145.50823    69.038326   -1274.2831   -1274.2831            0    389.92541   -884.35768   0.35921277 
3197000 135.963258662365 51.5813479855937 -931.44631735933 -1295.79361977785 364.347302418523 0.36693211833225
3198000 144.986867910167 59.1944479987535 -860.533890618472 -1249.06219399167 388.528303373199 0.355010345071326
 3198000    144.98687    59.194448   -1249.0622   -1249.0622            0     388.5283   -860.53389   0.35501035 
3199000 137.189876537284 -58.4214645972933 -902.610137978847 -1270.24446748264 367.634329503795 0.354909094089464
3200000 140.274223142726 -2.35086913889817 -950.03314125095 -1325.93274312665 375.899601875701 0.372193256991956
 3200000    140.27422   -2.3508691   -1325.9327   -1325.9327            0     375.8996   -950.03314   0.37219326 
Loop time of 603.379 on 36 procs for 3000000 steps with 900 atoms

Performance: 859.162 ns/day, 0.028 hours/ns, 4972.002 timesteps/s
99.7% CPU use with 36 MPI tasks x 1 OpenMP threads

MPI task timing breakdown:
Section |  min time  |  avg time  |  max time  |%varavg| %total
---------------------------------------------------------------
Pair    | 169.47     | 171.67     | 174.91     |   9.4 | 28.45
Bond    | 1.3953     | 1.5497     | 1.8477     |   8.6 |  0.26
Neigh   | 13.44      | 13.606     | 13.755     |   2.5 |  2.25
Comm    | 288.81     | 292.31     | 295.46     |   9.7 | 48.45
Output  | 0.22151    | 0.22494    | 0.33809    |   4.0 |  0.04
Modify  | 99.313     | 101.34     | 103.72     |  11.5 | 16.80
Other   |            | 22.67      |            |       |  3.76

Nlocal:    25 ave 31 max 21 min
Histogram: 2 3 6 4 5 8 3 3 1 1
Nghost:    1262.89 ave 1277 max 1251 min
Histogram: 2 4 2 9 3 7 2 4 2 1
Neighs:    3262.89 ave 4153 max 2629 min
Histogram: 2 9 0 5 7 6 4 1 1 1

Total # of neighbors = 117464
Ave neighs/atom = 130.516
Ave special neighs/atom = 0
Neighbor list builds = 53379
Dangerous builds = 0
unfix integrator
write_restart production.restart
undump traj1
Total wall time: 0:10:03
