LAMMPS (12 Dec 2018)
OMP_NUM_THREADS environment is not set. Defaulting to 1 thread. (../comm.cpp:87)
  using 1 OpenMP thread(s) per MPI task
# Lammps script to read in mBuild topologies and perform energy minimization
# Initialization
units           real
boundary        p p p
atom_style      full

# Assume ff info is included in data file
pair_style     lj/cut/coul/cut ${rcut} # read in from job.sp.r_cut
pair_style     lj/cut/coul/cut 14.0 
bond_style  none
angle_style none
dihedral_style  none
read_restart equilibrated_npt.restart
  restoring atom style full from restart
  triclinic box = (-0.223998 -0.223998 -0.223998) to (40.204 40.204 40.204) with tilt (0 0 0)
  3 by 3 by 4 MPI processor grid
  restoring pair style lj/cut/coul/cut from restart
  restoring bond style harmonic from restart
  restoring angle style harmonic from restart
  restoring dihedral style opls from restart
  900 atoms
  0 = max # of 1-2 neighbors
  0 = max # of 1-3 neighbors
  0 = max # of 1-4 neighbors
  1 = max # of special neighbors

pair_modify shift no  #TODO: Look to make sure this shift is okay

neighbor        2.5 bin #skin cutoff

timestep 2.0
thermo 2000
thermo_style custom step temp press pe epair emol ke etotal density

variable tsample equal ${T} #kelvin, modified by job.sp.temperature
variable tsample equal 140.0 
variable psample equal ${P}/101.325 #kPa to atm modified by job.sp.pressure
variable psample equal 1318.0/101.325 
# ________________________________________________________________________________________

# Production
variable startstep equal step
variable t equal temp
variable pressure equal press
variable e equal etotal
variable p equal pe
variable k equal ke
variable d equal density
variable filename string "prlog.txt"
fix output_data all print 1000 "${startstep} ${t} ${pressure} $e $p $k $d" file ${filename} title "step temp press etotal pe ke density"
fix output_data all print 1000 "${startstep} ${t} ${pressure} $e $p $k $d" file prlog.txt title "step temp press etotal pe ke density"
dump traj1 all dcd 10000 prod.dcd
fix integrator all npt temp ${tsample} ${tsample} 100.0 iso ${psample} ${psample} 1000.0 pchain 10
fix integrator all npt temp 140 ${tsample} 100.0 iso ${psample} ${psample} 1000.0 pchain 10
fix integrator all npt temp 140 140 100.0 iso ${psample} ${psample} 1000.0 pchain 10
fix integrator all npt temp 140 140 100.0 iso 13.007648655317 ${psample} 1000.0 pchain 10
fix integrator all npt temp 140 140 100.0 iso 13.007648655317 13.007648655317 1000.0 pchain 10
fix zeromom all momentum 100 linear 1 1 1 rescale
run 3000000
Neighbor list info ...
  update every 1 steps, delay 10 steps, check yes
  max neighbors/atom: 2000, page size: 100000
  master list distance cutoff = 16.5
  ghost atom cutoff = 16.5
  binsize = 8.25, bins = 5 5 5
  1 neighbor lists, perpetual/occasional/extra = 1 0 0
  (1) pair lj/cut/coul/cut, perpetual
      attributes: half, newton on
      pair build: half/bin/newton/tri
      stencil: half/bin/3d/newton/tri
      bin: standard
Per MPI rank memory allocation (min/avg/max) = 5.73 | 5.766 | 5.982 Mbytes
Step Temp Press PotEng E_pair E_mol KinEng TotEng Density 
  200000    139.57071   -12.371412   -1285.9138   -1285.9138            0    374.01436    -911.8994    0.3628528 
201000 140.910677424764 12.9086839253525 -926.538998729098 -1304.14413784372 377.605139114621 0.366618521822409
202000 142.424732507153 -6.89645209157151 -909.089475960704 -1290.75190150997 381.662425549269 0.36310067986653
  202000    142.42473   -6.8964521   -1290.7519   -1290.7519            0    381.66243   -909.08948   0.36310068 
203000 140.318483729704 48.5661379505607 -912.80839654214 -1288.82660564767 376.018209105533 0.365778016565773
204000 143.51332643512 9.33741579419066 -905.371047168046 -1289.95063037436 384.579583206315 0.36314503330607
  204000    143.51333    9.3374158   -1289.9506   -1289.9506            0    384.57958   -905.37105   0.36314503 
205000 141.851912427759 -4.98774709615108 -898.465728086391 -1278.59314003896 380.12741195257 0.360849553595068
206000 140.001576760034 12.0347885314138 -933.358303408931 -1308.52728162185 375.168978212918 0.367960270191918
  206000    140.00158    12.034789   -1308.5273   -1308.5273            0    375.16898    -933.3583   0.36796027 
207000 145.592437764207 95.4929067716003 -888.618878938359 -1278.76995705906 390.151078120701 0.36296415390883
208000 143.717998315087 -82.6121670790872 -908.37912486331 -1293.50717717871 385.128052315402 0.3607808446357
  208000      143.718   -82.612167   -1293.5072   -1293.5072            0    385.12805   -908.37912   0.36078084 
209000 145.368258699386 1.23798868859353 -904.6253213545 -1294.17565602193 389.550334667434 0.363897412755854
210000 144.819653954534 141.58092821319 -897.30751267205 -1285.38772474278 388.080212070733 0.367250454270678
  210000    144.81965    141.58093   -1285.3877   -1285.3877            0    388.08021   -897.30751   0.36725045 
211000 142.84983302239 -61.9267408462465 -907.24212429372 -1290.04371219837 382.801587904651 0.362112769749989
212000 146.02920100343 -19.2970889799448 -913.495119246036 -1304.81661288614 391.3214936401 0.366860853230005
  212000     146.0292   -19.297089   -1304.8166   -1304.8166            0    391.32149   -913.49512   0.36686085 
213000 142.476864880917 -90.5770500369987 -906.357773554541 -1288.15990074039 381.802127185847 0.359012150497803
214000 139.603828653052 21.241906722959 -910.024084967211 -1284.12719839249 374.103113425278 0.36226594553145
  214000    139.60383    21.241907   -1284.1272   -1284.1272            0    374.10311   -910.02408   0.36226595 
215000 140.30060885436 -74.1219218488091 -920.788090551618 -1296.7583994915 375.970308939882 0.362151971078899
216000 143.861542404728 18.0043463177004 -915.178500740148 -1300.6912150764 385.512714336256 0.366247000887724
  216000    143.86154    18.004346   -1300.6912   -1300.6912            0    385.51271    -915.1785     0.366247 
217000 140.570463363536 51.8168217227433 -903.818187771251 -1280.51163885579 376.693451084539 0.363164325836388
218000 139.51112295363 21.8437280833479 -907.397449847603 -1281.25213533849 373.854685490882 0.362324205197536
  218000    139.51112    21.843728   -1281.2521   -1281.2521            0    373.85469   -907.39745   0.36232421 
219000 141.497458391006 37.885056875009 -903.72416042786 -1282.90172480107 379.17756437321 0.36196441568179
220000 136.159787875547 -8.83059211796085 -901.838165610631 -1266.7121168413 364.873951230665 0.356117286527119
  220000    136.15979   -8.8305921   -1266.7121   -1266.7121            0    364.87395   -901.83817   0.35611729 
221000 142.109604749971 -65.4237919369861 -893.557405294427 -1274.3753677926 380.817962498176 0.356651043613407
222000 139.636904146395 63.0166191152031 -905.728841142199 -1279.92058856238 374.191747420186 0.36222489744319
  222000     139.6369    63.016619   -1279.9206   -1279.9206            0    374.19175   -905.72884    0.3622249 
223000 141.936729690875 26.5770009867367 -908.141678838037 -1288.49637970173 380.354700863697 0.363850816138567
224000 138.153743819198 -29.9894757958575 -928.12482351511 -1298.34207466634 370.217251151231 0.36309406900185
  224000    138.15374   -29.989476   -1298.3421   -1298.3421            0    370.21725   -928.12482   0.36309407 
225000 141.479013982158 -7.68817998510456 -943.257758768772 -1322.38589676993 379.128138001155 0.370493812951334
226000 144.806501673824 63.0919034084118 -916.415399753783 -1304.4603670235 388.044967269713 0.36857097965757
  226000     144.8065    63.091903   -1304.4604   -1304.4604            0    388.04497    -916.4154   0.36857098 
227000 132.774006277199 9.55468226178345 -915.726433582509 -1271.52734255107 355.800908968565 0.358673447624383
228000 141.459212089244 0.531034805098783 -911.664165147053 -1290.73923906062 379.075073913569 0.362175925759176
  228000    141.45921   0.53103481   -1290.7392   -1290.7392            0    379.07507   -911.66417   0.36217593 
229000 137.008451045971 -13.1534453812798 -896.622194584945 -1263.77034944862 367.148154863674 0.358084624839438
230000 142.415956126368 -30.3862499287271 -913.223376371939 -1294.86228343029 381.638907058351 0.365148286251639
  230000    142.41596    -30.38625   -1294.8623   -1294.8623            0    381.63891   -913.22338   0.36514829 
231000 138.879246588689 -36.538573887054 -912.850834784766 -1285.01225070199 372.161415917225 0.361333548902263
232000 143.101971775158 8.51999071914011 -902.545200010836 -1286.02245629318 383.477256282344 0.36219349489346
  232000    143.10197    8.5199907   -1286.0225   -1286.0225            0    383.47726    -902.5452   0.36219349 
233000 140.833693589417 -8.49654051289114 -911.869337577203 -1289.26817939493 377.39884181773 0.361823531667671
234000 138.296977946231 -15.6940016034879 -895.74849181521 -1266.34957436554 370.60108255033 0.357463510361931
  234000    138.29698   -15.694002   -1266.3496   -1266.3496            0    370.60108   -895.74849   0.35746351 
235000 132.226899247037 32.9070635504701 -935.60800389304 -1289.9428037632 354.334799870159 0.365978467622465
236000 141.582965732639 42.199282325224 -947.845438906477 -1327.2521414275 379.406702521026 0.373643795273477
  236000    141.58297    42.199282   -1327.2521   -1327.2521            0     379.4067   -947.84544    0.3736438 
237000 137.504537996025 38.9763561002631 -897.753814358094 -1266.23135735056 368.477542992463 0.358698175646268
238000 138.562365889709 29.5509295728868 -919.634205572982 -1290.94646099642 371.312255423443 0.364159538676006
  238000    138.56237     29.55093   -1290.9465   -1290.9465            0    371.31226   -919.63421   0.36415954 
239000 143.501652149074 -30.1476239486187 -910.377189144368 -1294.92548820326 384.548299058891 0.364095804171056
240000 143.445824329789 -37.1626381833285 -866.968972298178 -1251.36766685688 384.398694558699 0.35173764725507
  240000    143.44582   -37.162638   -1251.3677   -1251.3677            0    384.39869   -866.96897   0.35173765 
241000 138.561890038833 62.7996502414254 -938.890414109981 -1310.20139437288 371.310980262898 0.370597432890564
242000 138.843251235621 -2.02325927596394 -930.383617002513 -1302.44857443589 372.064957433376 0.366815699983589
  242000    138.84325   -2.0232593   -1302.4486   -1302.4486            0    372.06496   -930.38362    0.3668157 
243000 140.717949620012 27.0910700660402 -900.434374150629 -1277.52305127064 377.088677120009 0.362445489615517
244000 145.65636825323 -5.94304646939231 -926.197532721668 -1316.51992845749 390.32239573582 0.369662265577665
  244000    145.65637   -5.9430465   -1316.5199   -1316.5199            0     390.3224   -926.19753   0.36966227 
245000 136.406338034147 -89.5863067860122 -929.004000648771 -1294.53864423177 365.534643582998 0.361271485702261
246000 146.345335739554 73.6358690649145 -879.588860985435 -1271.75751612667 392.168655141236 0.361852234012118
  246000    146.34534    73.635869   -1271.7575   -1271.7575            0    392.16866   -879.58886   0.36185223 
247000 138.122211775618 24.7671332991854 -891.26277090922 -1261.39552412232 370.132753213102 0.355483973015032
248000 141.915546458903 7.77590131521853 -902.283645748138 -1282.58158088335 380.297935135211 0.360802334040944
  248000    141.91555    7.7759013   -1282.5816   -1282.5816            0    380.29794   -902.28365   0.36080233 
249000 135.385193922254 29.1198429502881 -919.769943505854 -1282.56817795738 362.798234451524 0.363190040913626
250000 144.10043965783 22.8362234503632 -914.281123662622 -1300.43402249121 386.15289882859 0.366162565109271
  250000    144.10044    22.836223    -1300.434    -1300.434            0     386.1529   -914.28112   0.36616257 
251000 142.211073841898 -28.8463005832025 -911.899365468546 -1292.98923958671 381.089874118169 0.36326166799279
252000 138.924195791398 -18.6080724024676 -918.120706080783 -1290.40257454463 372.281868463847 0.36238979992899
  252000     138.9242   -18.608072   -1290.4026   -1290.4026            0    372.28187   -918.12071    0.3623898 
253000 142.016315533542 -30.3852525840798 -918.839160142506 -1299.40713102762 380.567970885111 0.365341967969677
254000 141.67477038646 -10.5340765782345 -919.780985998724 -1299.43370187879 379.652715880064 0.366217093341349
  254000    141.67477   -10.534077   -1299.4337   -1299.4337            0    379.65272   -919.78099   0.36621709 
255000 140.556020344238 167.50061039294 -919.462612783144 -1296.11736021221 376.654747429068 0.369878864725042
256000 143.775527607136 -95.7795045541666 -920.442063271773 -1305.724279606 385.282216334228 0.364106867997492
  256000    143.77553   -95.779505   -1305.7243   -1305.7243            0    385.28222   -920.44206   0.36410687 
257000 140.401169724443 18.565448800096 -915.02806077342 -1291.26784752741 376.239786753991 0.365595921630336
258000 142.863903432322 117.822683778425 -893.99906724281 -1276.83836030364 382.839293060832 0.364056192262818
  258000     142.8639    117.82268   -1276.8384   -1276.8384            0    382.83929   -893.99907   0.36405619 
259000 142.565644185985 -7.57677336534555 -917.492778400858 -1299.53281177276 382.040033371904 0.366120675717237
260000 139.479118859029 -53.6592063939017 -923.22297685155 -1296.99189942641 373.768922574865 0.363103937278731
  260000    139.47912   -53.659206   -1296.9919   -1296.9919            0    373.76892   -923.22298   0.36310394 
261000 140.876805692224 -14.8019405724002 -912.184883836531 -1289.69925523566 377.514371399132 0.361221337475157
262000 144.54630544463 20.9637389305739 -879.624681949163 -1266.97238883295 387.34770688379 0.358547191655418
  262000    144.54631    20.963739   -1266.9724   -1266.9724            0    387.34771   -879.62468   0.35854719 
263000 142.092593166493 21.9039726014294 -891.82061085261 -1272.59298658999 380.772375737378 0.359293910111335
264000 138.702033506759 -41.9942407134664 -913.295627873659 -1284.98215734737 371.686529473714 0.360176316010335
  264000    138.70203   -41.994241   -1284.9822   -1284.9822            0    371.68653   -913.29563   0.36017632 
265000 137.645189088435 69.1481227521239 -917.510691911822 -1286.36514442092 368.854452509094 0.36514264653394
266000 143.021470130522 -109.972693533958 -927.98044057217 -1311.24197271439 383.261532142221 0.362640795123989
  266000    143.02147   -109.97269    -1311.242    -1311.242            0    383.26153   -927.98044    0.3626408 
267000 139.087883142885 -31.0581279449884 -928.474743156906 -1301.19525251199 372.720509355078 0.363336165053955
268000 144.957584270197 95.9481347287497 -888.990707921054 -1277.44053851173 388.449830590677 0.362478856106688
  268000    144.95758    95.948135   -1277.4405   -1277.4405            0    388.44983   -888.99071   0.36247886 
269000 142.085207808984 51.4980867508399 -903.308173845259 -1284.06075868389 380.752584838629 0.362374736034238
270000 140.912925049796 -65.0990054512538 -911.713408114471 -1289.3245702983 377.611162183832 0.361072807462147
  270000    140.91293   -65.099005   -1289.3246   -1289.3246            0    377.61116   -911.71341   0.36107281 
271000 142.928521893844 58.1526771559445 -897.629490957769 -1280.64194522681 383.01245426904 0.362490997589303
272000 135.585700175355 -32.8640803378899 -932.723714834206 -1296.05925556357 363.335540729367 0.363226013663642
  272000     135.5857    -32.86408   -1296.0593   -1296.0593            0    363.33554   -932.72371   0.36322601 
273000 133.999896158605 52.8397061973258 -909.799555859624 -1268.88554107413 359.085985214504 0.359149523799022
274000 138.731193339443 1.61630955018835 -943.324794303204 -1315.08946478708 371.76467048388 0.368321221810046
  274000    138.73119    1.6163096   -1315.0895   -1315.0895            0    371.76467   -943.32479   0.36832122 
275000 137.822607929716 -62.953102709979 -932.539560110412 -1301.86945044627 369.329890335862 0.363580460810264
276000 141.350853554174 -28.1011501479157 -907.305993591971 -1286.09069391245 378.784700320475 0.36156491358603
  276000    141.35085    -28.10115   -1286.0907   -1286.0907            0     378.7847   -907.30599   0.36156491 
277000 131.04323291193 -79.4623192549108 -906.72606433926 -1257.88893643715 351.162872097885 0.354338424195231
278000 143.767365285358 36.1194104261373 -924.592254175207 -1309.85259754206 385.260343366849 0.369142180656334
  278000    143.76737     36.11941   -1309.8526   -1309.8526            0    385.26034   -924.59225   0.36914218 
279000 139.976703809584 -44.8331163982484 -903.757012805574 -1278.85933777343 375.102324967851 0.358285380213851
280000 140.213948271414 22.621554368858 -894.774581790729 -1270.51266218642 375.738080395691 0.35907722262972
  280000    140.21395    22.621554   -1270.5127   -1270.5127            0    375.73808   -894.77458   0.35907722 
281000 141.013920146639 83.3658367346058 -930.960390240858 -1308.84219385719 377.881803616336 0.369749177813701
282000 138.756258053207 2.47371269870357 -932.368232508029 -1304.20007011438 371.831837606348 0.366934437402573
  282000    138.75626    2.4737127   -1304.2001   -1304.2001            0    371.83184   -932.36823   0.36693444 
283000 140.417604807056 55.1082274431415 -936.447291872955 -1312.73112051057 376.283828637616 0.370888880355737
284000 132.488157229689 -111.049806369378 -943.505054733988 -1298.53996022203 355.034905488038 0.362800671495003
  284000    132.48816   -111.04981     -1298.54     -1298.54            0    355.03491   -943.50505   0.36280067 
285000 128.987254178019 -116.152986360771 -935.984617355762 -1281.63798407035 345.653366714593 0.35889102496961
286000 146.514124367526 -40.2062807414227 -861.876839912018 -1254.49780608114 392.620966169122 0.353838970146997
  286000    146.51412   -40.206281   -1254.4978   -1254.4978            0    392.62097   -861.87684   0.35383897 
287000 143.13993613586 43.3540384417978 -862.19143573763 -1245.77042694856 383.578991210927 0.352844646301418
288000 137.698193953786 36.7162204298567 -907.546177949804 -1276.54267015326 368.99649220346 0.361103490712406
  288000    137.69819     36.71622   -1276.5427   -1276.5427            0    368.99649   -907.54618   0.36110349 
289000 145.404426110976 62.1703702087578 -877.11974370829 -1266.76699793309 389.647254224805 0.359366241137624
290000 139.746182564513 13.3539939963367 -924.827925789481 -1299.31251185774 374.484586068254 0.365789502278675
  290000    139.74618    13.353994   -1299.3125   -1299.3125            0    374.48459   -924.82793    0.3657895 
291000 136.426158079257 36.2913446316984 -972.544384151054 -1338.13214046495 365.587756313898 0.375919099237454
292000 136.219998370951 102.766725235938 -942.23165310173 -1307.26695330118 365.035300199448 0.370062738612217
  292000       136.22    102.76673    -1307.267    -1307.267            0     365.0353   -942.23165   0.37006274 
293000 136.818097285137 -18.5577032516877 -894.89548580137 -1261.53354051043 366.638054709064 0.356728402215014
294000 138.023899672002 -98.1926231574491 -907.499394092048 -1277.36869561901 369.869301526963 0.356894137071098
  294000     138.0239   -98.192623   -1277.3687   -1277.3687            0     369.8693   -907.49939   0.35689414 
295000 140.313523744366 -134.134304614909 -903.46786594328 -1279.47278353686 376.00491759358 0.355920383392603
296000 137.254060398885 17.6337954432673 -881.836383897905 -1249.64270999154 367.806326093634 0.355421149601945
  296000    137.25406    17.633795   -1249.6427   -1249.6427            0    367.80633   -881.83638   0.35542115 
297000 142.483830455591 35.6131981650856 -914.809211354536 -1296.63000452682 381.820793172286 0.36658760219163
298000 137.28422851243 11.7639997033175 -919.749928440279 -1287.63709748294 367.887169042656 0.36301019891442
  298000    137.28423       11.764   -1287.6371   -1287.6371            0    367.88717   -919.74993    0.3630102 
299000 140.104292445222 50.2639132427995 -884.581281962664 -1260.02551235167 375.444230389002 0.356986770673119
300000 137.891191267019 6.76040345112844 -930.287684715891 -1299.80136112884 369.513676412948 0.367142481756775
  300000    137.89119    6.7604035   -1299.8014   -1299.8014            0    369.51368   -930.28768   0.36714248 
301000 143.766689574293 -25.3731368890069 -899.501372187123 -1284.75990481844 385.258532631317 0.361232607684806
302000 137.759300637081 -39.6170562302314 -909.479898536396 -1278.64014126656 369.160242730164 0.358890366646534
  302000     137.7593   -39.617056   -1278.6401   -1278.6401            0    369.16024    -909.4799   0.35889037 
303000 135.333121239244 -75.5190491187496 -930.08029720526 -1292.7389899764 362.658692771138 0.362403943419944
304000 138.54729494297 -28.4957064408166 -910.421652370502 -1281.69352145102 371.271869080522 0.361548212583409
  304000    138.54729   -28.495706   -1281.6935   -1281.6935            0    371.27187   -910.42165   0.36154821 
305000 140.909870530189 12.439286770054 -892.399347317772 -1270.00232415808 377.602976840308 0.35821675728777
306000 138.350310397126 53.7851016303782 -903.388215060338 -1274.13221515182 370.744000091484 0.362515913574052
  306000    138.35031    53.785102   -1274.1322   -1274.1322            0      370.744   -903.38822   0.36251591 
307000 132.271754825023 -127.148762638881 -917.318318070049 -1271.77331959614 354.455001526095 0.354910291617234
308000 142.7721025009 -17.3897223096773 -940.126581830231 -1322.71987150712 382.593289676888 0.370584466392507
  308000     142.7721   -17.389722   -1322.7199   -1322.7199            0    382.59329   -940.12658   0.37058447 
309000 138.498334840901 19.5104042640213 -945.308482583257 -1316.44915091667 371.140668333417 0.370076990754669
310000 141.563598893912 0.547503729052389 -898.260799803358 -1277.61560407249 379.35480426913 0.359800363790614
  310000     141.5636   0.54750373   -1277.6156   -1277.6156            0     379.3548    -898.2608   0.35980036 
311000 135.062826465335 -9.34724361973673 -928.643884713294 -1290.57825554113 361.934370827839 0.362990071786955
312000 134.78818921085 -14.8834541720192 -933.04497136838 -1294.24338349826 361.198412129881 0.363694165936454
  312000    134.78819   -14.883454   -1294.2434   -1294.2434            0    361.19841   -933.04497   0.36369417 
313000 135.929033231401 9.35318320748686 -900.044423639931 -1264.30001052024 364.255586880307 0.358110220183011
314000 143.178101686486 -19.7521623742913 -899.546057316879 -1283.22732259473 383.681265277852 0.360657530458559
  314000     143.1781   -19.752162   -1283.2273   -1283.2273            0    383.68127   -899.54606   0.36065753 
315000 139.498831461562 -9.91516614088327 -885.823461752039 -1259.64520913875 373.821747386707 0.355357217333883
316000 137.33497212936 -0.0347274981858333 -893.851781041402 -1261.87493020196 368.02314916056 0.355491632346079
  316000    137.33497 -0.034727498   -1261.8749   -1261.8749            0    368.02315   -893.85178   0.35549163 
317000 137.489867320123 -115.47777955229 -912.601858821565 -1281.04008809617 368.438229274609 0.358346930716112
318000 148.857636834004 105.550527052571 -890.200520396514 -1289.10150996127 398.900989564751 0.366601815278166
  318000    148.85764    105.55053   -1289.1015   -1289.1015            0    398.90099   -890.20052   0.36660182 
319000 138.458004600536 54.4097140743811 -915.686251977367 -1286.71884542035 371.032593442987 0.3642914033452
320000 141.735298540083 -69.0938075464853 -879.084525287966 -1258.89944138086 379.814916092899 0.352315853868784
  320000     141.7353   -69.093808   -1258.8994   -1258.8994            0    379.81492   -879.08453   0.35231585 
321000 140.160097298793 15.7748972453625 -896.659495766014 -1272.25326911287 375.59377334686 0.358814157909189
322000 143.708718241572 -2.37549758156463 -865.76074908308 -1250.86393313786 385.103184054779 0.353025862401053
  322000    143.70872   -2.3754976   -1250.8639   -1250.8639            0    385.10318   -865.76075   0.35302586 
323000 132.404302109875 -97.4758677750164 -961.355442725803 -1316.16563760453 354.810194878723 0.367971144496111
324000 138.778906862248 100.031496948447 -916.656597345506 -1288.5491280579 371.892530712399 0.366200260268755
  324000    138.77891     100.0315   -1288.5491   -1288.5491            0    371.89253    -916.6566   0.36620026 
325000 139.126623727028 78.9889893136056 -940.064096030274 -1312.88842039733 372.824324367055 0.371188219620323
326000 131.733459654252 32.3874253831178 -959.549839329317 -1312.56234532165 353.012505992338 0.37002707986394
  326000    131.73346    32.387425   -1312.5623   -1312.5623            0    353.01251   -959.54984   0.37002708 
327000 144.817625240304 -30.0219689730032 -904.290097181012 -1292.36487280837 388.074775627356 0.362854448768422
328000 141.677746643495 138.42635959721 -915.403523973621 -1295.06421547322 379.660691499598 0.367011728124625
  328000    141.67775    138.42636   -1295.0642   -1295.0642            0    379.66069   -915.40352   0.36701173 
329000 138.596943533899 8.62171857337764 -925.505826482412 -1296.91074128684 371.404914804431 0.365970699187922
330000 144.090413987166 44.6111633790024 -890.556342133809 -1276.68237468913 386.126032555322 0.360368366899695
  330000    144.09041    44.611163   -1276.6824   -1276.6824            0    386.12603   -890.55634   0.36036837 
331000 136.768602965486 -11.110902333635 -924.774325610631 -1291.27974800397 366.505422393338 0.363031334903521
332000 138.123540659928 32.1745316820231 -943.988430158427 -1314.12474444691 370.136314288487 0.369987277467542
  332000    138.12354    32.174532   -1314.1247   -1314.1247            0    370.13631   -943.98843   0.36998728 
333000 138.729148717791 -86.186657462436 -872.110003494566 -1243.86919490718 371.759191412617 0.349427350061589
334000 140.447841465429 -12.4941869184226 -899.119706388884 -1275.4845616584 376.364855269521 0.358499317712139
  334000    140.44784   -12.494187   -1275.4846   -1275.4846            0    376.36486   -899.11971   0.35849932 
335000 140.070516706171 31.0948575658676 -905.23497690529 -1280.58869681719 375.353719911896 0.360842455257712
336000 141.615690673484 60.9842734988331 -910.520941892367 -1290.01533901586 379.494397123494 0.365343804262085
  336000    141.61569    60.984273   -1290.0153   -1290.0153            0     379.4944   -910.52094    0.3653438 
337000 146.68425153122 -56.2904247352015 -905.637250456523 -1298.71411459227 393.076864135749 0.363946836253134
338000 138.920752139922 -56.8864240261409 -911.008024847907 -1283.28066519279 372.272640344881 0.359413846151538
  338000    138.92075   -56.886424   -1283.2807   -1283.2807            0    372.27264   -911.00802   0.35941385 
339000 139.080262069176 28.1460939180879 -894.799031780989 -1267.49911857725 372.700086796257 0.359642281326945
340000 143.35325084912 -38.3530334924004 -920.168711885606 -1304.31933282288 384.150620937274 0.365545132243548
  340000    143.35325   -38.353033   -1304.3193   -1304.3193            0    384.15062   -920.16871   0.36554513 
341000 143.367362737096 12.9752438508557 -883.316022720433 -1267.5044599646 384.188437244169 0.358653650171674
342000 143.339049095938 -12.5554643434491 -909.170824238531 -1293.28338805278 384.112563814252 0.363746655780418
  342000    143.33905   -12.555464   -1293.2834   -1293.2834            0    384.11256   -909.17082   0.36374666 
343000 142.699739486281 1.36443144575401 -906.94779007453 -1289.34716509072 382.399375016187 0.363352932022524
344000 139.821071266911 30.996555608539 -879.532716336684 -1254.21798527301 374.685268936324 0.355497298818178
  344000    139.82107    30.996556    -1254.218    -1254.218            0    374.68527   -879.53272    0.3554973 
345000 143.452421653635 -14.6551208600428 -951.104807473431 -1335.52118119906 384.416373725631 0.37498850377783
346000 138.825769775486 -95.4399948434835 -905.572709748507 -1277.59082126994 372.018111521435 0.357194463895537
  346000    138.82577   -95.439995   -1277.5908   -1277.5908            0    372.01811   -905.57271   0.35719446 
347000 140.655462007339 38.1082716455724 -887.873472360453 -1264.7946984107 376.921226050244 0.359478881518614
348000 139.070607655901 3.76145618955899 -917.451601492584 -1290.12581689191 372.674215399324 0.36376829469454
  348000    139.07061    3.7614562   -1290.1258   -1290.1258            0    372.67422    -917.4516   0.36376829 
349000 135.223458293411 32.5070780591418 -942.817788436739 -1305.18261212234 362.364823685603 0.367822355212279
350000 137.805197793708 -54.9403113824987 -904.760506805197 -1274.04374235982 369.283235554624 0.358314694286018
  350000     137.8052   -54.940311   -1274.0437   -1274.0437            0    369.28324   -904.76051   0.35831469 
351000 142.656828016938 22.9021233697363 -935.731358287481 -1318.01574136944 382.284383081955 0.370510731412847
352000 131.11413479636 90.7384453171863 -930.463941811819 -1281.81681310936 351.352871297542 0.364866904414928
  352000    131.11413    90.738445   -1281.8168   -1281.8168            0    351.35287   -930.46394    0.3648669 
353000 142.541319024065 54.6018595709095 -899.906752968768 -1281.88160103095 381.974848062182 0.363181507299424
354000 137.485129423675 60.0032537059146 -897.006815758926 -1265.43234866389 368.425532904966 0.359267436917015
  354000    137.48513    60.003254   -1265.4323   -1265.4323            0    368.42553   -897.00682   0.35926744 
355000 132.137398651 92.0056431498227 -954.284294521782 -1308.37925532768 354.0949608059 0.370437986788976
356000 141.606977694899 72.7851970257997 -934.496111229833 -1313.96715976434 379.47104853451 0.372700303729621
  356000    141.60698    72.785197   -1313.9672   -1313.9672            0    379.47105   -934.49611    0.3727003 
357000 142.793678646382 -2.36681154345145 -887.167960636268 -1269.81906895093 382.651108314659 0.360045830074514
358000 137.387905329615 50.5306845637576 -926.734044062604 -1294.89904087312 368.164996810513 0.366555169806299
  358000    137.38791    50.530685    -1294.899    -1294.899            0      368.165   -926.73404   0.36655517 
359000 142.605370721008 53.2466523598886 -900.439191343899 -1282.58568182791 382.14649048401 0.361181549126306
360000 139.296252379596 55.167928619348 -933.105316108666 -1306.38420255804 373.278886449372 0.36805066113542
  360000    139.29625    55.167929   -1306.3842   -1306.3842            0    373.27889   -933.10532   0.36805066 
361000 140.053760835117 10.3421089260063 -890.535757787306 -1265.84457618332 375.308818396013 0.358414549535016
362000 138.376466824971 11.1119318884326 -935.315971608749 -1306.13006434158 370.814092732834 0.366104443432066
  362000    138.37647    11.111932   -1306.1301   -1306.1301            0    370.81409   -935.31597   0.36610444 
363000 142.689622202898 113.514773184661 -930.533510817963 -1312.90577406186 382.372263243899 0.373180251007928
364000 142.061624059462 90.1680680075322 -894.264730151342 -1274.95411647882 380.689386327473 0.362769081884468
  364000    142.06162    90.168068   -1274.9541   -1274.9541            0    380.68939   -894.26473   0.36276908 
365000 140.895446243726 93.1575501414809 -953.596277130008 -1331.16060051413 377.564323384118 0.376013615837713
366000 136.856032724656 -66.7517128926396 -930.14735424922 -1296.88706638538 366.739712136156 0.362645639106282
  366000    136.85603   -66.751713   -1296.8871   -1296.8871            0    366.73971   -930.14735   0.36264564 
367000 143.373212319108 -64.5246481252076 -918.692709577744 -1302.89682222899 384.204112651241 0.363426165880405
368000 141.341595863898 -34.9420404941812 -900.514238620876 -1279.27413066217 378.759892041298 0.360198104763098
  368000     141.3416    -34.94204   -1279.2741   -1279.2741            0    378.75989   -900.51424    0.3601981 
369000 146.24377879397 93.8483238784649 -909.682618271766 -1301.57912636732 391.896508095559 0.367849326688406
370000 141.592931533649 -1.80001288493574 -895.931320255465 -1275.36472861416 379.433408358692 0.35870884880885
  370000    141.59293   -1.8000129   -1275.3647   -1275.3647            0    379.43341   -895.93132   0.35870885 
371000 142.603106749381 -81.2805666164921 -904.074064589674 -1286.21448819971 382.140423610041 0.358330289472472
372000 138.358538706919 99.0984593412709 -927.862256123933 -1298.62830601406 370.766049890128 0.367187759424931
  372000    138.35854    99.098459   -1298.6283   -1298.6283            0    370.76605   -927.86226   0.36718776 
373000 137.398659000314 20.381416050191 -938.471386909426 -1306.66520085002 368.193813940589 0.366760929173177
374000 137.586303169989 -61.3040833892371 -897.190493975899 -1265.88714704897 368.696653073074 0.354878272424972
  374000     137.5863   -61.304083   -1265.8871   -1265.8871            0    368.69665   -897.19049   0.35487827 
375000 136.961614904852 -44.7507133836032 -862.631879481962 -1229.65452527914 367.02264579718 0.348526696410218
376000 141.860567318279 6.69677604886303 -908.853423306348 -1289.00402818651 380.150604880165 0.363546638012248
  376000    141.86057     6.696776    -1289.004    -1289.004            0     380.1506   -908.85342   0.36354664 
377000 133.696799566223 48.0345698310269 -950.981615866816 -1309.25537852287 358.273762656051 0.369742422148265
378000 142.93514027121 -45.1704365647262 -923.083775699903 -1306.11396555401 383.030189854107 0.366192527717181
  378000    142.93514   -45.170437    -1306.114    -1306.114            0    383.03019   -923.08378   0.36619253 
379000 139.732028679189 67.1434028824628 -909.462285373715 -1283.90894259275 374.44665721904 0.363741695917626
380000 140.007442665279 99.4349429897099 -904.51893797126 -1279.7036353334 375.184697362144 0.366443971563623
  380000    140.00744    99.434943   -1279.7036   -1279.7036            0     375.1847   -904.51894   0.36644397 
381000 149.931322571851 57.4631388159768 -876.32826865216 -1278.1064656778 401.778197025637 0.361397643146277
382000 142.763297944585 -37.3246207474322 -937.368788383833 -1319.93848406647 382.569695682642 0.369622468567019
  382000     142.7633   -37.324621   -1319.9385   -1319.9385            0     382.5697   -937.36879   0.36962247 
383000 142.403340085654 30.0981435406294 -866.488926619407 -1248.09402586492 381.605099245516 0.352266457107803
384000 141.533731426083 -41.4477175282119 -897.735510431382 -1277.01027740631 379.274766974932 0.357290084092948
  384000    141.53373   -41.447718   -1277.0103   -1277.0103            0    379.27477   -897.73551   0.35729008 
385000 144.226401262742 -9.28177577519734 -905.871880369663 -1292.36232458669 386.490444217022 0.364248124246654
386000 141.542425510772 26.5036745910402 -925.315966169338 -1304.61403110237 379.298064933033 0.368545446646037
  386000    141.54243    26.503675    -1304.614    -1304.614            0    379.29806   -925.31597   0.36854545 
387000 144.181933438968 52.1369319499694 -917.8970561707 -1304.26833781545 386.371281644753 0.368312640090924
388000 142.658833256987 49.0224485062313 -921.390586390944 -1303.68034301138 382.289756620436 0.367344225029663
  388000    142.65883    49.022449   -1303.6803   -1303.6803            0    382.28976   -921.39059   0.36734423 
389000 141.9623086316 7.49273323859495 -865.76353970005 -1246.18678568501 380.423245984958 0.355242126825547
390000 138.440952009849 30.478485395262 -930.298000345669 -1301.28489713886 370.98689679319 0.365861620285302
  390000    138.44095    30.478485   -1301.2849   -1301.2849            0     370.9869     -930.298   0.36586162 
391000 137.851078187737 -48.073938281312 -914.405303428491 -1283.81148688804 369.406183459544 0.361059965412897
392000 141.918804366944 30.2432663498753 -908.212345090582 -1288.51901059912 380.306665508533 0.363280949168607
  392000     141.9188    30.243266    -1288.519    -1288.519            0    380.30667   -908.21235   0.36328095 
393000 143.315179599639 -30.5769190434039 -893.212353595249 -1277.26095316892 384.048599573675 0.359086991872271
394000 140.811700656046 14.0386372315901 -903.014485103751 -1280.3543913971 377.339906293348 0.362598854667182
  394000     140.8117    14.038637   -1280.3544   -1280.3544            0    377.33991   -903.01449   0.36259885 
395000 138.174596508973 31.6397662111329 -958.395320158373 -1328.66845126822 370.273131109848 0.372090050849807
396000 143.20260084419 31.6036945004545 -930.802093366567 -1314.54901021904 383.746916852468 0.369507737736121
  396000     143.2026    31.603695    -1314.549    -1314.549            0    383.74692   -930.80209   0.36950774 
397000 136.43715211304 111.481328406163 -936.756596909957 -1302.37381446648 365.617217556523 0.370098268796107
398000 142.13008224675 -4.68253788652189 -929.189505591146 -1310.06234262517 380.872837034027 0.367645415212196
  398000    142.13008   -4.6825379   -1310.0623   -1310.0623            0    380.87284   -929.18951   0.36764542 
399000 141.611027404058 57.513782256685 -919.012858415174 -1298.49475915065 379.481900735481 0.366178366505764
400000 137.312549087705 -25.0208066575681 -942.429761294631 -1310.39282234889 367.963061054263 0.368409445017016
  400000    137.31255   -25.020807   -1310.3928   -1310.3928            0    367.96306   -942.42976   0.36840945 
401000 137.201567600533 -41.874200136022 -919.258087213996 -1286.9237458239 367.665658609902 0.362433019303055
402000 143.127841403267 -7.63354039596811 -885.980078771134 -1269.52665914374 383.546580372609 0.357170833013498
  402000    143.12784   -7.6335404   -1269.5267   -1269.5267            0    383.54658   -885.98008   0.35717083 
403000 137.121583574097 2.38028719256671 -901.441495759396 -1268.89281731563 367.451321556235 0.357798263350689
404000 139.046172080332 18.3134132150681 -903.716311803496 -1276.32504601232 372.608734208825 0.361812272766584
  404000    139.04617    18.313413    -1276.325    -1276.325            0    372.60873   -903.71631   0.36181227 
405000 141.880080118593 46.2754976410531 -927.061949420348 -1307.26484369271 380.202894272365 0.37006719443708
406000 143.979362781903 64.2074778575732 -896.526194228043 -1282.35463751207 385.82844328403 0.364082847685406
  406000    143.97936    64.207478   -1282.3546   -1282.3546            0    385.82844   -896.52619   0.36408285 
407000 143.345081522005 46.7523529555534 -882.172790490622 -1266.30151968798 384.128729197357 0.359195307084514
408000 145.20816244142 64.5673106330978 -900.01572825379 -1289.13704525652 389.121317002727 0.365281336634991
  408000    145.20816    64.567311    -1289.137    -1289.137            0    389.12132   -900.01573   0.36528134 
409000 138.693563361676 -1.42255935501415 -914.010005647017 -1285.67383726439 371.663831617376 0.363926306725197
410000 139.072000456393 -35.1103467767987 -924.645037142363 -1297.32298489635 372.677947753985 0.364374897302078
  410000      139.072   -35.110347    -1297.323    -1297.323            0    372.67795   -924.64504    0.3643749 
411000 143.118387489328 -22.6251352341176 -910.87468607032 -1294.39593233374 383.521246263417 0.362169546956094
412000 141.539868180495 30.040721250406 -923.728685381082 -1303.01989731282 379.291211931738 0.368429151884471
  412000    141.53987    30.040721   -1303.0199   -1303.0199            0    379.29121   -923.72869   0.36842915 
413000 138.236024850384 165.403118675176 -950.410430655056 -1320.84817425438 370.437743599322 0.376232330770961
414000 140.162226366829 65.4693994957739 -886.03871822613 -1261.6381969393 375.599478713173 0.358880237606377
  414000    140.16223    65.469399   -1261.6382   -1261.6382            0    375.59948   -886.03872   0.35888024 
415000 134.449280381199 30.2147118003571 -933.273070960666 -1293.56329275248 360.290221791814 0.36537763077725
416000 147.101399111026 -9.89730350419366 -872.012903276153 -1266.2076179026 394.194714626448 0.356528894545636
  416000     147.1014   -9.8973035   -1266.2076   -1266.2076            0    394.19471    -872.0129   0.35652889 
417000 137.203702778282 39.2750525349249 -906.57036742178 -1274.24174777048 367.671380348705 0.360355836151001
418000 137.894533543464 -8.00966394332234 -951.247372027689 -1320.77000490004 369.522632872351 0.369970201303929
  418000    137.89453   -8.0096639     -1320.77     -1320.77            0    369.52263   -951.24737    0.3699702 
419000 146.488303162585 39.8634286786983 -856.911112541321 -1249.46288438208 392.551771840757 0.354397272086833
420000 136.913378146333 56.8179133272706 -947.45401610929 -1314.34739953797 366.893383428677 0.369796927077629
  420000    136.91338    56.817913   -1314.3474   -1314.3474            0    366.89338   -947.45402   0.36979693 
421000 143.667138090796 34.1490662971334 -875.773985889592 -1260.76574560872 384.991759719129 0.355466979974053
422000 146.062361492629 -24.9264018245838 -896.893318249668 -1288.30367365217 391.410355402501 0.361437065328492
  422000    146.06236   -24.926402   -1288.3037   -1288.3037            0    391.41036   -896.89332   0.36143707 
423000 135.07042203998 -91.6170889796891 -964.482183904197 -1326.43690895979 361.954725055589 0.370145060151873
424000 138.915392193634 40.4027914651012 -873.335861968764 -1245.59413900704 372.258277038278 0.354457093767637
  424000    138.91539    40.402791   -1245.5941   -1245.5941            0    372.25828   -873.33586   0.35445709 
425000 141.190860663345 60.7161490498609 -895.927285969733 -1274.2832456234 378.355959653671 0.359845182375899
426000 140.677862718622 5.11850863422799 -927.086217633606 -1304.06747195037 376.981254316767 0.367682661999175
  426000    140.67786    5.1185086   -1304.0675   -1304.0675            0    376.98125   -927.08622   0.36768266 
427000 130.896974920455 -88.5659156018348 -952.64807623182 -1303.4190137352 350.770937503383 0.364698859489271
428000 142.162427334757 101.383724446334 -911.37060593202 -1292.33011965854 380.959513726524 0.367337231060991
  428000    142.16243    101.38372   -1292.3301   -1292.3301            0    380.95951   -911.37061   0.36733723 
429000 136.256381406224 57.5059699399019 -919.796672445363 -1284.92947001937 365.132797574003 0.363121303588738
430000 135.416413739974 -69.1087312077421 -891.035550635579 -1253.91744633853 362.881895702953 0.351416762534631
  430000    135.41641   -69.108731   -1253.9174   -1253.9174            0     362.8819   -891.03555   0.35141676 
431000 137.987812270389 62.6271926326755 -923.937253643981 -1293.70985002017 369.772596376187 0.365960886978604
432000 136.253805715786 -7.25029476480103 -926.900165984729 -1292.02606135683 365.125895372097 0.363260026281275
  432000    136.25381   -7.2502948   -1292.0261   -1292.0261            0     365.1259   -926.90017   0.36326003 
433000 139.618003753063 -19.6327012061813 -912.73526248946 -1286.87636161397 374.141099124514 0.360314891760571
434000 149.826528092688 122.545249461936 -923.065894115169 -1324.56326832024 401.497374205067 0.374941455133509
  434000    149.82653    122.54525   -1324.5633   -1324.5633            0    401.49737   -923.06589   0.37494146 
435000 137.699277549158 17.4066862270856 -930.382740739517 -1299.38213670576 368.999395966246 0.365863920181301
436000 138.594648299789 16.2456130095987 -928.445263990522 -1299.8440281454 371.398764154875 0.364640390771242
  436000    138.59465    16.245613    -1299.844    -1299.844            0    371.39876   -928.44526   0.36464039 
437000 147.446812431527 9.02852968409828 -893.856470090097 -1288.97680545248 395.120335362388 0.362352906876007
438000 142.423616371086 -6.01493810178196 -910.053638925965 -1291.71307351158 381.659434585615 0.36339813717385
  438000    142.42362   -6.0149381   -1291.7131   -1291.7131            0    381.65943   -910.05364   0.36339814 
439000 136.562823296198 60.6349954991346 -914.797952990348 -1280.75193767812 365.953984687776 0.363325077495204
440000 138.470815344733 30.7464148276656 -921.712155703215 -1292.77907871535 371.066923012136 0.364879797100545
  440000    138.47082    30.746415   -1292.7791   -1292.7791            0    371.06692   -921.71216    0.3648798 
441000 141.061329226908 134.521732025408 -945.498169325082 -1323.50701734059 378.008848015508 0.37639541588415
442000 140.649415798256 14.0592966742862 -891.131177201612 -1268.03620093374 376.905023732126 0.359349831605926
  442000    140.64942    14.059297   -1268.0362   -1268.0362            0    376.90502   -891.13118   0.35934983 
443000 139.220587753945 21.4763872974499 -909.729564931584 -1282.80568923392 373.076124302335 0.361155626506632
444000 141.419495355537 -48.5158765004886 -907.941351715097 -1286.90999478162 378.96864306652 0.359544787555572
  444000     141.4195   -48.515877     -1286.91     -1286.91            0    378.96864   -907.94135   0.35954479 
445000 138.628991513498 -22.9216268691416 -928.090279353845 -1299.58107467504 371.490795321196 0.365484187841246
446000 140.16398231889 -15.6888018463761 -917.431080314751 -1293.03526453736 375.604184222608 0.364162889037748
  446000    140.16398   -15.688802   -1293.0353   -1293.0353            0    375.60418   -917.43108   0.36416289 
447000 138.823156638569 -100.926143442604 -920.245524858455 -1292.25663383085 372.011108972392 0.361312588157568
448000 136.131489176923 17.651273018989 -940.623256280282 -1305.42137412326 364.798117842973 0.367678335989701
  448000    136.13149    17.651273   -1305.4214   -1305.4214            0    364.79812   -940.62326   0.36767834 
449000 137.390619430701 25.5092158669956 -927.56085326822 -1295.73312318633 368.172269918107 0.366184489950877
450000 134.716966132056 -5.93610352524381 -896.893057665985 -1257.90060987618 361.007552210195 0.354665962658878
  450000    134.71697   -5.9361035   -1257.9006   -1257.9006            0    361.00755   -896.89306   0.35466596 
451000 137.982156919731 82.6476072149983 -940.679703487095 -1310.43714494734 369.757441460242 0.369959854767621
452000 144.227975979047 50.9365420160678 -914.714795505597 -1301.20945956586 386.494664060264 0.367183283197067
  452000    144.22798    50.936542   -1301.2095   -1301.2095            0    386.49466    -914.7148   0.36718328 
453000 136.41850739342 82.1718831066764 -904.15154666096 -1269.71880106299 365.567254402031 0.361251767548425
454000 139.207150078793 86.4928953730306 -941.830480879267 -1314.87059559533 373.040114716065 0.370964967255249
  454000    139.20715    86.492895   -1314.8706   -1314.8706            0    373.04011   -941.83048   0.37096497 
455000 141.517006574118 65.5774814104347 -903.05759150202 -1282.28754008442 379.2299485824 0.363661938732872
456000 144.063276480702 91.9353002221065 -868.579536980781 -1254.63284785105 386.053310870274 0.358103302891366
  456000    144.06328      91.9353   -1254.6328   -1254.6328            0    386.05331   -868.57954    0.3581033 
457000 133.831845431711 67.334324482181 -918.147269344298 -1276.78292092003 358.635651575728 0.362455683678845
458000 145.550720401847 -13.144272137951 -909.78505874053 -1299.82434483308 390.03928609255 0.36534653203218
  458000    145.55072   -13.144272   -1299.8243   -1299.8243            0    390.03929   -909.78506   0.36534653 
459000 142.388390634422 28.872577890952 -907.720601796939 -1289.2856402769 381.565038479963 0.364390582024317
460000 136.551255304955 -37.2744375939327 -928.504726285929 -1294.42771166959 365.92298538366 0.363927668051421
  460000    136.55126   -37.274438   -1294.4277   -1294.4277            0    365.92299   -928.50473   0.36392767 
461000 134.397882152139 -35.6407701013793 -920.997244501533 -1281.14973197975 360.152487478213 0.360427486225673
462000 137.548099185 -85.2260584880374 -896.554725949216 -1265.14900196095 368.594276011731 0.354806841724928
  462000     137.5481   -85.226058    -1265.149    -1265.149            0    368.59428   -896.55473   0.35480684 
463000 140.701595573929 -39.0557301202761 -894.919110967499 -1271.96396336138 377.044852393886 0.357758566385986
464000 142.503344682396 -20.8264195175646 -909.21511589318 -1291.0882022803 381.873086387122 0.363142916738666
  464000    142.50334    -20.82642   -1291.0882   -1291.0882            0    381.87309   -909.21512   0.36314292 
465000 139.309091760575 61.2178151965293 -911.769049049106 -1285.082341807 373.31329275789 0.365256248148732
466000 131.85379375853 -16.1792772562854 -936.585368209023 -1289.9203393049 353.334971095881 0.362854083794226
  466000    131.85379   -16.179277   -1289.9203   -1289.9203            0    353.33497   -936.58537   0.36285408 
467000 142.223359192684 -67.8492109461265 -883.260907099318 -1264.38370286457 381.122795765255 0.35351355624554
468000 140.797840469972 -82.8900426249315 -924.591431127561 -1301.89419561174 377.30276448418 0.364458763806316
  468000    140.79784   -82.890043   -1301.8942   -1301.8942            0    377.30276   -924.59143   0.36445876 
469000 144.392186912161 138.61311891581 -934.503998870526 -1321.43870688896 386.934708018433 0.374741306819746
470000 143.019024548185 72.9362176870058 -932.49495074693 -1315.7499293442 383.25497859727 0.372438802571743
  470000    143.01902    72.936218   -1315.7499   -1315.7499            0    383.25498   -932.49495    0.3724388 
471000 143.158289776233 -1.94774767513141 -901.134486133751 -1284.76266048007 383.62817434632 0.361982927754965
472000 137.158989785778 -22.6613685866032 -938.812855051861 -1306.36441583782 367.551560785963 0.366237014115581
  472000    137.15899   -22.661369   -1306.3644   -1306.3644            0    367.55156   -938.81286   0.36623701 
473000 136.01534826313 5.91115327922298 -932.270784761675 -1296.75767419591 364.486889434232 0.363802608489238
474000 140.626559927477 36.5028392194987 -880.889872671016 -1257.73364842376 376.843775752746 0.355188471543842
  474000    140.62656    36.502839   -1257.7336   -1257.7336            0    376.84378   -880.88987   0.35518847 
475000 137.298976741952 31.0163590470565 -914.160971007469 -1282.08766159216 367.926690584687 0.362281586474238
476000 141.485619721327 39.52912774717 -912.094669287521 -1291.24050900655 379.145839719033 0.363592059941557
  476000    141.48562    39.529128   -1291.2405   -1291.2405            0    379.14584   -912.09467   0.36359206 
477000 141.344163254651 31.4001396947883 -875.898441490602 -1254.66521349274 378.766772002134 0.35545808655309
478000 136.988017678213 63.2000696874284 -911.50575297352 -1278.59915155601 367.093398582491 0.361795261089914
  478000    136.98802     63.20007   -1278.5992   -1278.5992            0     367.0934   -911.50575   0.36179526 
479000 141.990577911955 -33.313270921578 -871.282527045975 -1251.78152758507 380.499000539092 0.353310027220229
480000 139.686228195265 84.3008261627489 -931.201472436469 -1305.52539588955 374.323923453085 0.369218317330182
  480000    139.68623    84.300826   -1305.5254   -1305.5254            0    374.32392   -931.20147   0.36921832 
481000 139.72973041699 59.4073111806764 -919.790655914478 -1294.23115436945 374.440498454969 0.366801996401794
482000 138.86216974657 19.3888013449196 -900.694172060447 -1272.80982634015 372.115654279698 0.360374361416354
  482000    138.86217    19.388801   -1272.8098   -1272.8098            0    372.11565   -900.69417   0.36037436 
483000 145.500210534009 46.0773061521359 -870.608949840859 -1260.51288220422 389.903932363365 0.357316551538206
484000 138.912137430212 -128.539653184503 -931.058980527838 -1303.30853561958 372.249555091742 0.363742477366708
  484000    138.91214   -128.53965   -1303.3085   -1303.3085            0    372.24956   -931.05898   0.36374248 
485000 139.811969749055 45.2162513110079 -910.528971947912 -1285.18985110782 374.660879159912 0.363414525792577
486000 140.314150837683 14.3674084246776 -874.165450635805 -1250.17204868159 376.006598045788 0.354820619099551
  486000    140.31415    14.367408    -1250.172    -1250.172            0     376.0066   -874.16545   0.35482062 
487000 139.049657317578 9.14786380363169 -919.400038266674 -1292.01811203386 372.618073767182 0.364625992114804
488000 137.841116767557 -14.7102483323314 -890.383882857529 -1259.76337221893 369.379489361398 0.355138898646702
  488000    137.84112   -14.710248   -1259.7634   -1259.7634            0    369.37949   -890.38388    0.3551389 
489000 140.378101716699 69.3463222231973 -920.882940467079 -1297.06091076804 376.177970300957 0.368432742745144
490000 139.998175339845 31.4566294161631 -909.351620195461 -1284.51148345863 375.159863263171 0.361471897694752
  490000    139.99818    31.456629   -1284.5115   -1284.5115            0    375.15986   -909.35162    0.3614719 
491000 143.390461543001 -49.123434224582 -912.484474606764 -1296.73481083529 384.250336228524 0.362678486871081
492000 136.280363202088 174.733366617269 -923.345781127183 -1288.54284387632 365.19706274914 0.368125569283734
  492000    136.28036    174.73337   -1288.5428   -1288.5428            0    365.19706   -923.34578   0.36812557 
493000 135.042769154765 -5.58167402169409 -938.905012133409 -1300.78563441865 361.880622285242 0.365754801850663
494000 137.233224819835 -22.6120584379349 -937.239308060888 -1304.98980004834 367.75049198745 0.365617495618864
  494000    137.23322   -22.612058   -1304.9898   -1304.9898            0    367.75049   -937.23931    0.3656175 
495000 135.964239994372 -64.9013290115366 -918.536488060426 -1282.88642020166 364.349932141236 0.358508885445114
496000 139.511071392474 -1.3194797765426 -894.454644623433 -1268.3091919434 373.854547319966 0.359364596728084
  496000    139.51107   -1.3194798   -1268.3092   -1268.3092            0    373.85455   -894.45464    0.3593646 
497000 135.114232485648 -112.399757648016 -888.541475063795 -1250.61360108383 362.072126020039 0.350324333524408
498000 138.499085723738 58.7492570968992 -905.586316365041 -1276.72899687542 371.142680510375 0.362757440318531
  498000    138.49909    58.749257    -1276.729    -1276.729            0    371.14268   -905.58632   0.36275744 
499000 139.031202968646 -28.2711334763297 -911.710778660517 -1284.27939941872 372.568620758205 0.360452620112247
500000 144.024671985788 21.802849992582 -878.859414298914 -1264.80927484208 385.949860543167 0.356479365086841
  500000    144.02467     21.80285   -1264.8093   -1264.8093            0    385.94986   -878.85941   0.35647937 
501000 138.156699248814 -2.69658002509456 -900.911657713768 -1271.1368286723 370.225170958528 0.359139121959521
502000 146.089953884221 -36.8790655011653 -884.091457072149 -1275.57575313732 391.484296065169 0.359284523967977
  502000    146.08995   -36.879066   -1275.5758   -1275.5758            0     391.4843   -884.09146   0.35928452 
503000 139.751700755092 76.9493162410629 -934.296965291493 -1308.79633872121 374.499373429718 0.370628863230578
504000 142.087544878655 -6.92708878897812 -869.336768842239 -1250.09561643919 380.758847596956 0.353441817307424
  504000    142.08754   -6.9270888   -1250.0956   -1250.0956            0    380.75885   -869.33677   0.35344182 
505000 137.683078299118 27.8633684824694 -903.055076514771 -1272.01106256932 368.955986054544 0.361469056022585
506000 138.551493644197 -5.62018597833736 -932.819198924084 -1304.10231946681 371.283120542724 0.367448318767037
  506000    138.55149    -5.620186   -1304.1023   -1304.1023            0    371.28312    -932.8192   0.36744832 
507000 138.765271279817 46.5345368525835 -904.765798126193 -1276.62178891064 371.855990784448 0.362133537925482
508000 147.888624299785 24.2192994650321 -855.832752718395 -1252.13703265493 396.304279936533 0.353682009030676
  508000    147.88862    24.219299    -1252.137    -1252.137            0    396.30428   -855.83275   0.35368201 
509000 137.581196251277 -23.5554905665302 -910.344226454503 -1279.02719427117 368.682967816668 0.359568615208425
510000 134.144211885771 32.9616070052893 -943.15527051872 -1302.62798554837 359.472715029654 0.36599529066034
  510000    134.14421    32.961607    -1302.628    -1302.628            0    359.47272   -943.15527   0.36599529 
511000 137.503787896797 13.7546393360723 -931.506987483623 -1299.982520399 368.475532915381 0.365741578574274
512000 133.539774833252 39.3603626941076 -932.716737154575 -1290.5697130596 357.852975905026 0.366146901312544
  512000    133.53977    39.360363   -1290.5697   -1290.5697            0    357.85298   -932.71674    0.3661469 
513000 140.967255010012 20.7100401915804 -929.565983805384 -1307.32273660421 377.756752798825 0.369857795623318
514000 142.74275563884 10.4888218596187 -874.233224474632 -1256.74787194971 382.51464747508 0.355148726829562
  514000    142.74276    10.488822   -1256.7479   -1256.7479            0    382.51465   -874.23322   0.35514873 
515000 138.70398817709 -85.8526766926415 -924.856731905509 -1296.54849940359 371.691767498082 0.363630260568928
516000 137.269415814845 -61.4592544680119 -944.26231671968 -1312.10979146213 367.847474742449 0.366348191037954
  516000    137.26942   -61.459254   -1312.1098   -1312.1098            0    367.84747   -944.26232   0.36634819 
517000 147.223245873682 101.097956080083 -904.373278856664 -1298.89451213027 394.521233273609 0.369107427851451
518000 134.966687023119 -41.8090816859319 -961.673673222708 -1323.35041454996 361.676741327252 0.37086854080141
  518000    134.96669   -41.809082   -1323.3504   -1323.3504            0    361.67674   -961.67367   0.37086854 
519000 143.219067114543 9.55061880054552 -912.444794693855 -1296.23583700524 383.791042311383 0.363504653152976
520000 141.658357688013 12.0026945742219 -900.6347945521 -1280.24352853247 379.608733980369 0.359144017666492
  520000    141.65836    12.002695   -1280.2435   -1280.2435            0    379.60873   -900.63479   0.35914402 
521000 149.56671799327 42.2612042974468 -883.529493453774 -1284.3306420035 400.80114854973 0.361977275637756
522000 136.896762937058 37.2134851185175 -906.216966063744 -1273.06582491469 366.84885885095 0.360100649974611
  522000    136.89676    37.213485   -1273.0658   -1273.0658            0    366.84886   -906.21697   0.36010065 
523000 135.704686784466 109.459900434287 -915.577386903478 -1279.23178178859 363.654394885114 0.363072917346136
524000 135.636510229963 8.08341616839467 -963.240044872897 -1326.71174375642 363.47169888352 0.372295560469359
  524000    135.63651    8.0834162   -1326.7117   -1326.7117            0     363.4717   -963.24004   0.37229556 
525000 146.614480936512 42.8037005159637 -895.210972597432 -1288.10086910516 392.889896507728 0.364112223624638
526000 136.311273369194 -5.6293708895991 -929.753833455244 -1295.03372767013 365.279894214883 0.366983817616068
  526000    136.31127   -5.6293709   -1295.0337   -1295.0337            0    365.27989   -929.75383   0.36698382 
527000 148.47654972048 23.9208363061544 -881.805570396079 -1279.685342441 397.879772044923 0.362094788942668
528000 143.891089582947 18.6495747963762 -882.154607712697 -1267.74650104763 385.591893334934 0.358420294136731
  528000    143.89109    18.649575   -1267.7465   -1267.7465            0    385.59189   -882.15461   0.35842029 
529000 138.951158114798 23.9700462999723 -922.366044195727 -1294.72016489812 372.35412070239 0.364650828052844
530000 127.887454707569 -109.537142654889 -937.646683757336 -1280.35286478219 342.706181024857 0.357855634601864
  530000    127.88745   -109.53714   -1280.3529   -1280.3529            0    342.70618   -937.64668   0.35785563 
531000 133.489959982698 -36.0925507150122 -926.065202628545 -1283.78468727573 357.719484647182 0.362187655476049
532000 145.763292978625 -96.6602662211331 -913.029495579667 -1303.63842265964 390.60892707997 0.364146519961621
  532000    145.76329   -96.660266   -1303.6384   -1303.6384            0    390.60893    -913.0295   0.36414652 
533000 135.156094330824 -35.4235905231722 -908.299422992467 -1270.48372821823 362.18430522576 0.357134975884931
534000 144.174585367221 -49.1496461619779 -884.615966566693 -1270.96755722915 386.351590662458 0.357252897226879
  534000    144.17459   -49.149646   -1270.9676   -1270.9676            0    386.35159   -884.61597    0.3572529 
535000 138.43332241647 -7.37721595748939 -914.47953184341 -1285.44598324721 370.966451403799 0.361670594894833
536000 140.33563078289 17.2553999035349 -921.854253425978 -1297.91841231702 376.064158891044 0.365694441700978
  536000    140.33563      17.2554   -1297.9184   -1297.9184            0    376.06416   -921.85425   0.36569444 
537000 141.965364866868 2.5323911334431 -891.241660148712 -1271.67309607473 380.431435926022 0.358290063632498
538000 143.379518645814 36.178302524051 -908.601140090565 -1292.82215210966 384.2210120191 0.364031356495083
  538000    143.37952    36.178303   -1292.8222   -1292.8222            0    384.22101   -908.60114   0.36403136 
539000 145.934157270973 29.8546208189086 -890.004368030799 -1281.07116839661 391.066800365806 0.360892280477066
540000 138.684390610518 66.6509895361843 -948.625510034903 -1320.26476098855 371.639250953651 0.371405530392913
  540000    138.68439     66.65099   -1320.2648   -1320.2648            0    371.63925   -948.62551   0.37140553 
541000 140.62773199037 10.0155551953685 -921.437380380052 -1298.28429696627 376.846916586215 0.365178651824857
542000 134.358465595479 1.97328568717582 -921.420019807143 -1281.46688083722 360.046861030075 0.360953641670071
  542000    134.35847    1.9732857   -1281.4669   -1281.4669            0    360.04686   -921.42002   0.36095364 
543000 144.707466411488 -23.7120475608235 -898.893967795408 -1286.67354549568 387.779577700271 0.363684587094795
544000 135.775372881449 -33.8416839218754 -945.001266875814 -1308.84508270456 363.843815828742 0.368530268065893
  544000    135.77537   -33.841684   -1308.8451   -1308.8451            0    363.84382   -945.00127   0.36853027 
545000 136.958223237774 -28.0568411990579 -908.29458782733 -1275.30814481064 367.013556983312 0.360964319766146
546000 144.39305013653 33.3811273041589 -902.032101092414 -1288.96912233483 386.937021242414 0.363364753709636
  546000    144.39305    33.381127   -1288.9691   -1288.9691            0    386.93702    -902.0321   0.36336475 
547000 132.517013041629 11.8849623925881 -908.390534390164 -1263.50276618932 355.112231799152 0.359057270661167
548000 138.013323570453 109.544886429688 -921.15265658894 -1290.99361682644 369.840960237504 0.366242955740449
  548000    138.01332    109.54489   -1290.9936   -1290.9936            0    369.84096   -921.15266   0.36624296 
549000 142.121922168487 -35.8242584024353 -897.982312431155 -1278.83328250986 380.850970078703 0.358335838583958
550000 142.094583345316 -0.774669244690821 -878.140451725415 -1258.91816064098 380.777708915566 0.356155326424994
  550000    142.09458  -0.77466924   -1258.9182   -1258.9182            0    380.77771   -878.14045   0.35615533 
551000 141.324029252432 -13.4760927832745 -863.970651624765 -1242.68346956999 378.712817945226 0.351668050766546
552000 140.979748332663 26.6537673562583 -878.186945944059 -1255.97717770221 377.79023175815 0.356160539746925
  552000    140.97975    26.653767   -1255.9772   -1255.9772            0    377.79023   -878.18695   0.35616054 
553000 146.398500889239 26.0476013769214 -883.571327116912 -1275.88245147418 392.311124357263 0.360766722673789
554000 151.100257169692 20.958679861908 -913.951973046121 -1318.86262049709 404.910647450973 0.371109542593163
  554000    151.10026     20.95868   -1318.8626   -1318.8626            0    404.91065   -913.95197   0.37110954 
555000 138.53214619513 23.8995069611553 -941.019179436516 -1312.25045368675 371.231274250236 0.370407113705939
556000 136.596965649296 9.84949149459749 -936.550032201395 -1302.59550979962 366.045477598227 0.367078469865958
  556000    136.59697    9.8494915   -1302.5955   -1302.5955            0    366.04548   -936.55003   0.36707847 
557000 142.026955221314 -46.5573526144834 -957.525747445659 -1338.1222300153 380.596482569638 0.372632102171222
558000 143.327805486188 12.7145501145963 -894.420530880559 -1278.50296465143 384.082433770868 0.360392014229475
  558000    143.32781     12.71455    -1278.503    -1278.503            0    384.08243   -894.42053   0.36039201 
559000 143.657310557916 110.62947447469 -891.575888987848 -1276.54131339309 384.965424405238 0.36402317591099
560000 138.421944328432 -10.7920527755968 -910.159386569633 -1281.0953475621 370.935960992464 0.362682172468502
  560000    138.42194   -10.792053   -1281.0953   -1281.0953            0    370.93596   -910.15939   0.36268217 
561000 140.511732446003 -100.955202486941 -918.367036280893 -1294.90310329284 376.536067011944 0.360309714399406
562000 136.921917035571 -80.3700886346064 -943.609062438816 -1310.52532794086 366.916265502041 0.365197521952867
  562000    136.92192   -80.370089   -1310.5253   -1310.5253            0    366.91627   -943.60906   0.36519752 
563000 139.55722493949 63.0224163260842 -884.204925063163 -1258.18315226928 373.978227206119 0.358595004545625
564000 143.809811022765 -4.25479844489386 -876.341163224161 -1261.71525048091 385.374087256747 0.357068213944968
  564000    143.80981   -4.2547984   -1261.7153   -1261.7153            0    385.37409   -876.34116   0.35706821 
565000 145.885751087424 128.610910378986 -896.056572347279 -1286.99365632816 390.937083980879 0.365651289906819
566000 137.930482223843 13.4424506471209 -925.737651040561 -1295.35661732571 369.618966285147 0.364905353595502
  566000    137.93048    13.442451   -1295.3566   -1295.3566            0    369.61897   -925.73765   0.36490535 
567000 140.782577655494 -23.9449228486879 -919.6662681697 -1296.92813215372 377.261863984022 0.363519334072547
568000 141.1563528905 196.06715164922 -905.189467660784 -1283.45295517108 378.263487510296 0.366947747954041
  568000    141.15635    196.06715    -1283.453    -1283.453            0    378.26349   -905.18947   0.36694775 
569000 142.11695531889 34.809821780648 -895.794573376042 -1276.63223354831 380.837660172265 0.360111053006383
570000 134.680567042477 28.3225298584128 -920.875861983093 -1281.78587379724 360.910011814142 0.362538014129622
  570000    134.68057     28.32253   -1281.7859   -1281.7859            0    360.91001   -920.87586   0.36253801 
571000 140.957368941355 -5.14378948208584 -894.082508886657 -1271.81276951045 377.730260623792 0.358315928340566
572000 136.470633644659 16.6568396888363 -911.801368846599 -1277.50830847838 365.706939631782 0.361424566771186
  572000    136.47063     16.65684   -1277.5083   -1277.5083            0    365.70694   -911.80137   0.36142457 
573000 138.79315808921 83.0441198526266 -922.501920500583 -1294.43264091328 371.930720412697 0.367245435256515
574000 139.24096379616 51.408958680825 -911.365508048923 -1284.49623501442 373.130726965496 0.364278010707814
  574000    139.24096    51.408959   -1284.4962   -1284.4962            0    373.13073   -911.36551   0.36427801 
575000 140.248764761422 39.6867728402383 -895.451691422516 -1271.28307124586 375.831379823339 0.359771426657619
576000 134.929225641974 -31.0343918378606 -927.66063721186 -1289.23699146911 361.57635425725 0.363009080260677
  576000    134.92923   -31.034392    -1289.237    -1289.237            0    361.57635   -927.66064   0.36300908 
577000 146.385373095781 83.011892256519 -910.896649378385 -1303.1725945543 392.275945175916 0.368900361708207
578000 137.918371555663 0.315827092776588 -963.573575725949 -1333.16008846941 369.586512743465 0.373841300477773
  578000    137.91837   0.31582709   -1333.1601   -1333.1601            0    369.58651   -963.57358    0.3738413 
579000 137.907985411873 -85.3860684165651 -924.398716665155 -1293.95739715813 369.558680492978 0.361196184886882
580000 144.027539546662 3.94004492344252 -919.498322401514 -1305.45586728587 385.957544884358 0.367274823668632
  580000    144.02754    3.9400449   -1305.4559   -1305.4559            0    385.95754   -919.49832   0.36727482 
581000 135.159166402583 76.9728344801139 -960.936866592456 -1323.12940419709 362.192537604634 0.372713511918745
582000 138.221538685608 -101.930526685711 -901.185249854535 -1271.58417417937 370.398924324832 0.355964197038385
  582000    138.22154   -101.93053   -1271.5842   -1271.5842            0    370.39892   -901.18525    0.3559642 
583000 142.941601801099 -39.3393212929327 -891.805464447892 -1274.85296957531 383.047505127422 0.359300273004997
584000 139.929797795947 -30.3685415164877 -888.823311736166 -1263.79994039676 374.976628660598 0.357160944733785
  584000     139.9298   -30.368542   -1263.7999   -1263.7999            0    374.97663   -888.82331   0.35716094 
585000 138.611684269081 14.1353091846752 -916.58428522432 -1288.02870148784 371.444416263517 0.362601893477238
586000 140.253712288166 53.4914520300572 -918.657942398286 -1294.50258034768 375.844637949399 0.364462335319977
  586000    140.25371    53.491452   -1294.5026   -1294.5026            0    375.84464   -918.65794   0.36446234 
587000 142.248884957262 61.3605779830496 -908.747421569075 -1289.9386199569 381.191198387827 0.364590228484892
588000 145.94845364077 -5.65554680487204 -891.495451102879 -1282.60056214041 391.105111037535 0.36105118788601
  588000    145.94845   -5.6555468   -1282.6006   -1282.6006            0    391.10511   -891.49545   0.36105119 
589000 139.019805595368 5.25974579274901 -921.193575267092 -1293.73165393437 372.53807866728 0.364396732240877
590000 133.483748857438 1.21758353565092 -901.014090791062 -1258.71693118629 357.70284039523 0.354828900482063
  590000    133.48375    1.2175835   -1258.7169   -1258.7169            0    357.70284   -901.01409    0.3548289 
591000 144.679282819003 29.674610975825 -882.475609430719 -1270.17966219877 387.704052768055 0.357961636080888
592000 144.33939029257 94.3160009987183 -888.9273187411 -1275.72054511137 386.793226370274 0.362158615733615
  592000    144.33939    94.316001   -1275.7205   -1275.7205            0    386.79323   -888.92732   0.36215862 
593000 135.931477135842 27.6288797254226 -918.635030030693 -1282.89716595961 364.26213592892 0.36166125291222
594000 144.83640894476 -2.78338350059629 -885.866044883612 -1273.99115610983 388.125111226218 0.359683508474289
  594000    144.83641   -2.7833835   -1273.9912   -1273.9912            0    388.12511   -885.86604   0.35968351 
595000 139.211663249714 55.4746609694351 -902.953546254058 -1276.00575513193 373.052208877874 0.362031510883815
596000 133.816682613841 -8.33438493724089 -949.224933280416 -1307.81995232172 358.595019041305 0.366076966608647
  596000    133.81668   -8.3343849     -1307.82     -1307.82            0    358.59502   -949.22493   0.36607697 
597000 138.093431419111 35.2439629616568 -909.297775072851 -1279.3534041764 370.055629103552 0.362107249171856
598000 142.112153659893 52.3898413336709 -937.085692734921 -1317.91048566996 380.824792935042 0.370856829122578
  598000    142.11215    52.389841   -1317.9105   -1317.9105            0    380.82479   -937.08569   0.37085683 
599000 142.398143403367 86.9973523591778 -899.51228010984 -1281.10345355517 381.591173445329 0.36384697073115
600000 144.262692599447 -17.6533470260938 -929.864914950573 -1316.45261081308 386.587695862503 0.368496724197285
  600000    144.26269   -17.653347   -1316.4526   -1316.4526            0     386.5877   -929.86491   0.36849672 
601000 143.544443798443 58.0094074595444 -940.424071695855 -1325.08704160161 384.662969905757 0.373892135196179
602000 138.450031610332 -15.822425844601 -946.595997037723 -1317.60722487428 371.011227836558 0.3690122450379
  602000    138.45003   -15.822426   -1317.6072   -1317.6072            0    371.01123     -946.596   0.36901225 
603000 137.358949882187 -72.5456561878456 -937.506551815991 -1305.59395531737 368.087403501376 0.365311987593093
604000 141.265653567167 50.8106090907606 -905.964466481032 -1284.52085228671 378.556385805674 0.363290401678514
  604000    141.26565    50.810609   -1284.5209   -1284.5209            0    378.55639   -905.96447    0.3632904 
605000 140.970876416943 -42.2815543774952 -904.640192751563 -1282.40665000922 377.766457257658 0.360159476150763
606000 135.800873785518 77.5460807099124 -905.00741766073 -1268.91956949214 363.91215183141 0.36017675804555
  606000    135.80087    77.546081   -1268.9196   -1268.9196            0    363.91215   -905.00742   0.36017676 
607000 140.607385299853 7.12723644803448 -930.481306835135 -1307.27369941335 376.792392578216 0.368632924353176
608000 145.603033992068 -21.3812994088162 -900.206002566864 -1290.38547591047 390.17947334361 0.362824327175832
  608000    145.60303   -21.381299   -1290.3855   -1290.3855            0    390.17947     -900.206   0.36282433 
609000 148.237415627823 46.8397917780993 -872.444202346537 -1269.68315522874 397.238952882208 0.358452720265923
610000 144.665551427062 41.5419847851437 -867.485257704783 -1255.15251379952 387.667256094738 0.356048035299363
  610000    144.66555    41.541985   -1255.1525   -1255.1525            0    387.66726   -867.48526   0.35604804 
611000 132.714674801977 -6.64123544199682 -930.25169982447 -1285.89361537703 355.64191555256 0.363913157836412
612000 141.550951087485 71.4393966934601 -911.493722949596 -1290.81463428178 379.320911332181 0.365718278163119
  612000    141.55095    71.439397   -1290.8146   -1290.8146            0    379.32091   -911.49372   0.36571828 
613000 133.709056673019 11.0433055263764 -940.998412841817 -1299.30502145817 358.306608616353 0.365533672207228
614000 142.647777478799 -11.7052558171684 -862.56084759298 -1244.82097751133 382.260129918352 0.351305733707847
  614000    142.64778   -11.705256    -1244.821    -1244.821            0    382.26013   -862.56085   0.35130573 
615000 142.174045920069 -86.427940301719 -931.086767638572 -1312.07741624858 380.990648610006 0.366477643112486
616000 136.514000352289 -46.6951894059997 -923.891929715027 -1289.71508120504 365.823151490009 0.360184972709664
  616000      136.514   -46.695189   -1289.7151   -1289.7151            0    365.82315   -923.89193   0.36018497 
617000 140.186120918729 32.2867508444095 -872.379085560494 -1248.04259565695 375.663510096452 0.354216996656791
618000 140.146768492565 84.570068583335 -892.333774536226 -1267.89183003812 375.558055501896 0.361440987914446
  618000    140.14677    84.570069   -1267.8918   -1267.8918            0    375.55806   -892.33377   0.36144099 
619000 143.689071465132 43.4429141298124 -913.904465125649 -1298.95500076594 385.050535640293 0.366345002305822
620000 137.007422618316 10.7656658683057 -931.619155420081 -1298.76455435656 367.145398936482 0.365192467819871
  620000    137.00742    10.765666   -1298.7646   -1298.7646            0     367.1454   -931.61916   0.36519247 
621000 142.203863886949 16.5815338775813 -915.271928388448 -1296.34248164257 381.070553254121 0.365266493277333
622000 138.769429172238 -37.2155391196307 -912.706570951553 -1284.57370384088 371.867132889324 0.359692135242038
  622000    138.76943   -37.215539   -1284.5737   -1284.5737            0    371.86713   -912.70657   0.35969214 
623000 145.423237487479 64.4509645332591 -870.925623721942 -1260.62328769973 389.697663977786 0.357999094996176
624000 140.51383019867 0.417609108933665 -907.031537176403 -1283.57322563735 376.54168846095 0.361966394244947
  624000    140.51383   0.41760911   -1283.5732   -1283.5732            0    376.54169   -907.03154   0.36196639 
625000 142.921652249868 23.7546208492249 -903.21480815805 -1286.20885351077 382.994045352721 0.363218290430547
626000 138.352877926526 -37.9263949000066 -893.753764178217 -1264.50464460208 370.750880423862 0.356260907459484
  626000    138.35288   -37.926395   -1264.5046   -1264.5046            0    370.75088   -893.75376   0.35626091 
627000 138.576908874017 -51.2402688714372 -935.59889875992 -1306.9501257199 371.351226959975 0.365847054334201
628000 139.044682071812 -17.440408943075 -925.194329100361 -1297.79907046148 372.604741361122 0.365684672493636
  628000    139.04468   -17.440409   -1297.7991   -1297.7991            0    372.60474   -925.19433   0.36568467 
629000 144.711505959187 -3.1883092073258 -893.343013119029 -1281.13341579012 387.790402671089 0.362697980281899
630000 139.736385510947 11.9180980869822 -921.679996155066 -1296.13832858632 374.458332431253 0.365264271325871
  630000    139.73639    11.918098   -1296.1383   -1296.1383            0    374.45833      -921.68   0.36526427 
631000 138.376239860766 -27.6925951014932 -955.811548861917 -1326.62503338782 370.813484525904 0.370739936470163
632000 144.746675364069 58.2679407703699 -899.694357152472 -1287.57900497422 387.884647821745 0.365513186033168
  632000    144.74668    58.267941    -1287.579    -1287.579            0    387.88465   -899.69436   0.36551319 
633000 138.039017918663 -16.3817438818605 -934.77315968408 -1304.68297430585 369.909814621768 0.364911556630972
634000 140.070524935773 -61.1089655922588 -925.084455453287 -1300.43819741845 375.353741965158 0.363238715739049
  634000    140.07052   -61.108966   -1300.4382   -1300.4382            0    375.35374   -925.08446   0.36323872 
635000 145.121403851748 26.8632693459906 -913.863568380579 -1302.75239420577 388.888825825188 0.367386793089075
636000 134.831212163332 -43.2033607604232 -966.391286603329 -1327.70498941419 361.313702810857 0.370957963785241
  636000    134.83121   -43.203361    -1327.705    -1327.705            0     361.3137   -966.39129   0.37095796 
637000 143.881180141222 75.0871368628728 -923.957878113547 -1309.52321663951 385.565338525962 0.369241298932401
638000 139.752905691716 13.1979634238911 -941.399880714709 -1315.90248307122 374.502602356509 0.369298280823367
  638000    139.75291    13.197963   -1315.9025   -1315.9025            0     374.5026   -941.39988   0.36929828 
639000 141.531925112063 -36.5558258403892 -907.247870574925 -1286.51779708305 379.269926508127 0.360828105222928
640000 144.020330840622 63.1968674840781 -917.490086611113 -1303.42831397819 385.938227367073 0.367646915396784
  640000    144.02033    63.196867   -1303.4283   -1303.4283            0    385.93823   -917.49009   0.36764692 
641000 143.098325874086 53.4954423548715 -912.92838895561 -1296.39587514099 383.467486185382 0.366035571039549
642000 139.46098201974 45.7250704236995 -914.263010546111 -1287.9833309579 373.720320411793 0.364404658669275
  642000    139.46098     45.72507   -1287.9833   -1287.9833            0    373.72032   -914.26301   0.36440466 
643000 142.366562190609 -62.2106716102672 -887.202240400432 -1268.70878414662 381.506543746184 0.355172843870211
644000 137.267852398334 98.8420386316196 -945.776291714464 -1313.61957689428 367.843285179814 0.371725455593452
  644000    137.26785    98.842039   -1313.6196   -1313.6196            0    367.84329   -945.77629   0.37172546 
645000 140.055451817707 66.4063269520476 -941.18729625463 -1316.50064605825 375.313349803625 0.371305704421866
646000 132.668829955421 -96.839790904279 -928.023718560838 -1283.54278146676 355.519062905921 0.359304736863949
  646000    132.66883   -96.839791   -1283.5428   -1283.5428            0    355.51906   -928.02372   0.35930474 
647000 138.782747974703 7.88046446751088 -922.260516081985 -1294.16334000871 371.90282392672 0.365346806542057
648000 142.241445965913 -12.4248517505853 -887.280545216083 -1268.45180897997 381.171263763892 0.35685943948457
  648000    142.24145   -12.424852   -1268.4518   -1268.4518            0    381.17126   -887.28055   0.35685944 
649000 148.839153965174 111.349661877721 -921.003295004894 -1319.85475513452 398.851460129626 0.372399026607195
650000 141.431386455499 61.7287730971842 -895.688611592464 -1274.68911981312 379.000508220654 0.362325851281874
  650000    141.43139    61.728773   -1274.6891   -1274.6891            0    379.00051   -895.68861   0.36232585 
651000 139.615742304559 62.0211161412748 -896.431339964906 -1270.56637897678 374.135039011875 0.35959188070295
652000 138.611263635736 -41.1801707349931 -953.837531379833 -1325.28082045189 371.443289072054 0.370787858284024
  652000    138.61126   -41.180171   -1325.2808   -1325.2808            0    371.44329   -953.83753   0.37078786 
653000 137.785167702141 55.8014443105123 -926.902993345669 -1296.13255329777 369.229559952101 0.368200363327476
654000 137.792166257464 -43.0375334157423 -923.925791424519 -1293.1741057429 369.248314318376 0.363353947747388
  654000    137.79217   -43.037533   -1293.1741   -1293.1741            0    369.24831   -923.92579   0.36335395 
655000 137.124315606491 -37.7914825742352 -924.536662243721 -1291.99530495894 367.458642715221 0.362592370583932
[...]
 3090000    140.06444    64.742637   -1287.3861   -1287.3861            0    375.33743   -912.04871   0.36367015 
3091000 142.409860614005 95.9035645237304 -926.199638417636 -1307.82221103749 381.622572619854 0.370181712156076
3092000 148.011353088003 1.05876866106285 -898.225805639796 -1294.85896782993 396.633162190137 0.361807936646593
 3092000    148.01135    1.0587687    -1294.859    -1294.859            0    396.63316   -898.22581   0.36180794 
3093000 135.621540551977 79.7615255167071 -910.184440098339 -1273.6160240137 363.43158391536 0.36242006203878
3094000 142.819540715227 74.9272830476626 -883.684737432068 -1266.40514958007 382.720412147998 0.358692280892216
 3094000    142.81954    74.927283   -1266.4051   -1266.4051            0    382.72041   -883.68474   0.35869228 
3095000 142.100065440177 46.0939476195129 -913.710413185493 -1294.50281273509 380.792399549595 0.366072832266048
3096000 141.290564335923 -16.832065482574 -889.435190384222 -1268.0583307785 378.62314039428 0.355847066644103
 3096000    141.29056   -16.832065   -1268.0583   -1268.0583            0    378.62314   -889.43519   0.35584707 
3097000 141.382758695001 -3.34885442808558 -925.110138622169 -1303.98033668746 378.870198065291 0.365991186673985
3098000 138.909067365898 -2.49432179432353 -907.405660419032 -1279.64698851135 372.241328092315 0.359732847711824
 3098000    138.90907   -2.4943218    -1279.647    -1279.647            0    372.24133   -907.40566   0.35973285 
3099000 142.20922089635 -9.48295437332489 -912.998593061276 -1294.08350175189 381.084908690609 0.364220914200011
3100000 138.312657963212 -13.2634412888727 -922.597164622575 -1293.24026567073 370.643101048159 0.362952927259578
 3100000    138.31266   -13.263441   -1293.2403   -1293.2403            0     370.6431   -922.59716   0.36295293 
3101000 142.847737037775 43.0009471161314 -876.650501562759 -1259.44647275634 382.79597119358 0.358279689820158
3102000 136.98513755974 -22.9598151763172 -901.453389966505 -1268.5390705566 367.085680590097 0.357210625615739
 3102000    136.98514   -22.959815   -1268.5391   -1268.5391            0    367.08568   -901.45339   0.35721063 
3103000 138.833644926251 -32.7109295537546 -913.423989824098 -1285.46320476689 372.039214942795 0.360525626696846
3104000 140.645233749877 1.97646550218409 -912.339657712287 -1289.23347460765 376.893816895363 0.363321113523278
 3104000    140.64523    1.9764655   -1289.2335   -1289.2335            0    376.89382   -912.33966   0.36332111 
3105000 145.200208504638 -42.9446569422852 -867.353389556094 -1256.45339201077 389.100002454676 0.353475529534581
3106000 140.737207080683 63.276250829019 -900.328093060063 -1277.46837532632 377.140282266254 0.363081007686054
 3106000    140.73721    63.276251   -1277.4684   -1277.4684            0    377.14028   -900.32809   0.36308101 
3107000 146.080634029536 20.2603262589905 -882.189162771506 -1273.64848397253 391.459321201025 0.35903228126513
3108000 140.80473526051 -91.434108965268 -872.913295058481 -1250.23453584543 377.321240786954 0.350636562171699
 3108000    140.80474   -91.434109   -1250.2345   -1250.2345            0    377.32124    -872.9133   0.35063656 
3109000 141.468622772973 56.9600833462044 -894.123166917301 -1273.22345909398 379.100292176681 0.360927818616114
3110000 142.996420617288 -74.8534667622573 -865.290585813748 -1248.48499156709 383.194405753344 0.350260498769605
 3110000    142.99642   -74.853467    -1248.485    -1248.485            0    383.19441   -865.29059    0.3502605 
3111000 143.410833057987 47.8684614490129 -882.507886784456 -1266.81281354431 384.304926759849 0.359346322697253
3112000 134.498886658172 84.5152351617694 -961.70225931761 -1322.12541344259 360.423154124976 0.374820310897702
 3112000    134.49889    84.515235   -1322.1254   -1322.1254            0    360.42315   -961.70226   0.37482031 
3113000 148.749446606147 72.8227694834129 -885.083310415562 -1283.69437740817 398.61106699261 0.363816875214049
3114000 139.366893801532 24.1862037178464 -931.543123705713 -1305.01131138083 373.46818767512 0.368793806200892
 3114000    139.36689    24.186204   -1305.0113   -1305.0113            0    373.46819   -931.54312   0.36879381 
3115000 139.712666521929 -45.1725426715641 -910.665849261835 -1285.06062077413 374.394771512298 0.360531604157241
3116000 147.017396060728 40.1661104367295 -927.089847418696 -1321.05945501938 393.969607600681 0.368868255940063
 3116000     147.0174     40.16611   -1321.0595   -1321.0595            0    393.96961   -927.08985   0.36886826 
3117000 140.979770977787 -41.4760574809654 -905.990576446807 -1283.78086888819 377.790292441379 0.359658348692786
3118000 140.862089751904 -5.16935896999153 -913.098316099689 -1290.57325248372 377.474936384034 0.362407850393417
 3118000    140.86209    -5.169359   -1290.5733   -1290.5733            0    377.47494   -913.09832   0.36240785 
3119000 137.914412899046 39.3541390926264 -940.353958864517 -1309.9298634049 369.575904540385 0.368209780049579
3120000 145.177316523583 -32.5650273107108 -902.081641209891 -1291.12029891874 389.038657708848 0.361147368012572
 3120000    145.17732   -32.565027   -1291.1203   -1291.1203            0    389.03866   -902.08164   0.36114737 
3121000 146.247018834722 83.8844349745479 -901.421589182009 -1293.32677977106 391.905190589046 0.364929228648465
3122000 139.516112635539 19.0179055980858 -890.570981179145 -1264.43903776132 373.868056582171 0.358449895548402
 3122000    139.51611    19.017906    -1264.439    -1264.439            0    373.86806   -890.57098    0.3584499 
3123000 141.041800993995 96.6334626769179 -913.730815099166 -1291.68733236699 377.956517267827 0.36581829677665
3124000 136.761107401346 -56.7624842158811 -927.222620131179 -1293.70795629974 366.485336168564 0.359648490323992
 3124000    136.76111   -56.762484    -1293.708    -1293.708            0    366.48534   -927.22262   0.35964849 
3125000 141.707712865523 -4.46479456432552 -900.077726672872 -1279.81872010306 379.740993430186 0.359208892852355
3126000 137.110925452499 66.6195254241898 -921.605216440555 -1289.02797691425 367.422760473694 0.366192560327962
 3126000    137.11093    66.619525    -1289.028    -1289.028            0    367.42276   -921.60522   0.36619256 
3127000 137.229275431637 19.3004428773474 -927.775379630755 -1295.51528825215 367.739908621396 0.364176240089814
3128000 136.263714915939 -23.4711912970911 -937.402994890562 -1302.55544442428 365.152449533717 0.366623565607403
 3128000    136.26371   -23.471191   -1302.5554   -1302.5554            0    365.15245   -937.40299   0.36662357 
3129000 139.218552403941 -3.99799339172218 -902.14912426704 -1275.2197943438 373.070670076756 0.35956137830069
3130000 136.376945466308 106.286780874196 -924.468095973448 -1289.92397487466 365.455878901211 0.366663506709675
 3130000    136.37695    106.28678    -1289.924    -1289.924            0    365.45588    -924.4681   0.36666351 
3131000 139.516534617594 150.335916858347 -897.540648621758 -1271.4098360096 373.869187387839 0.365485187299364
3132000 138.424348140643 75.7996076852817 -941.69196174694 -1312.63436435093 370.942402603994 0.370974387775244
 3132000    138.42435    75.799608   -1312.6344   -1312.6344            0     370.9424   -941.69196   0.37097439 
3133000 141.455970543368 -31.4189141702166 -906.995932384521 -1286.06231977125 379.066387386731 0.361085400311208
3134000 146.866478083188 25.2797797967809 -856.039540718485 -1249.60472613523 393.565185416746 0.353188531785683
 3134000    146.86648     25.27978   -1249.6047   -1249.6047            0    393.56519   -856.03954   0.35318853 
3135000 140.836249151803 30.7502574903298 -908.152841695136 -1285.55853177666 377.405690081521 0.365419254866689
3136000 139.347670792624 91.7070963106498 -917.248864646543 -1290.66553949747 373.416674850929 0.365194563226369
 3136000    139.34767    91.707096   -1290.6655   -1290.6655            0    373.41667   -917.24886   0.36519456 
3137000 137.640185363749 21.9204528589973 -934.579454593915 -1303.42049838061 368.841043786697 0.367840247524415
3138000 143.520796298021 1.77174833874071 -909.527682201216 -1294.12728275946 384.59960055824 0.363932983782566
 3138000     143.5208    1.7717483   -1294.1273   -1294.1273            0     384.5996   -909.52768   0.36393298 
3139000 140.82027656919 43.592137984497 -917.913208877914 -1295.27609645937 377.362887581458 0.366494501493232
3140000 138.926319706575 9.33874909913328 -932.196619745869 -1304.48417976766 372.287560021792 0.367412778362265
 3140000    138.92632    9.3387491   -1304.4842   -1304.4842            0    372.28756   -932.19662   0.36741278 
3141000 137.844396907939 -51.3152409142911 -924.769227544543 -1294.15750685634 369.388279311796 0.36253584166542
3142000 141.451526978958 -27.4481048859157 -878.984896368316 -1258.03937612116 379.054479752846 0.354429211831631
 3142000    141.45153   -27.448105   -1258.0394   -1258.0394            0    379.05448    -878.9849   0.35442921 
3143000 137.886671280899 83.4693385923571 -909.827372075403 -1279.32893606352 369.501563988121 0.363150896841804
3144000 141.345328428016 17.6995849133649 -870.367258485093 -1249.1371528585 378.769894373404 0.353665673876214
 3144000    141.34533    17.699585   -1249.1372   -1249.1372            0    378.76989   -870.36726   0.35366567 
3145000 131.684721748787 -62.1370449770458 -958.643155510721 -1311.52505618692 352.881900676195 0.36704826916511
3146000 141.298106311128 13.7866184184889 -927.751434428133 -1306.39478541715 378.643350989022 0.365859008300437
 3146000    141.29811    13.786618   -1306.3948   -1306.3948            0    378.64335   -927.75143   0.36585901 
3147000 144.051783811223 -5.26008219521406 -917.775095335131 -1303.79760874465 386.022513409523 0.365189436261786
3148000 142.797392832862 42.2500608787103 -920.531718913935 -1303.19278031326 382.661061399325 0.367752763845683
 3148000    142.79739    42.250061   -1303.1928   -1303.1928            0    382.66106   -920.53172   0.36775276 
3149000 138.517118543217 -21.0132245153984 -940.783291437442 -1311.97429536399 371.191003926545 0.368139956860728
3150000 143.830501817704 8.15108103490543 -928.907710593591 -1314.33724397156 385.429533377966 0.368848183273442
 3150000     143.8305     8.151081   -1314.3372   -1314.3372            0    385.42953   -928.90771   0.36884818 
3151000 148.248464336958 133.0451852309 -875.187796565276 -1272.45635720629 397.268560641012 0.363833605199855
3152000 141.757972730904 165.374684207303 -903.87858347924 -1283.75426069497 379.875677215729 0.366568312766967
 3152000    141.75797    165.37468   -1283.7543   -1283.7543            0    379.87568   -903.87858   0.36656831 
3153000 143.436020474813 108.240610828578 -898.329737089961 -1282.70215978559 384.372422695633 0.36375168941622
3154000 135.9746041963 23.470746786545 -928.293818052125 -1292.67152364518 364.37770559306 0.363807256991156
 3154000     135.9746    23.470747   -1292.6715   -1292.6715            0    364.37771   -928.29382   0.36380726 
3155000 146.076760788369 -48.5645077081217 -890.966858717495 -1282.41580060734 391.448941889845 0.359721512403897
3156000 141.555213591188 -29.0540053386611 -901.730920455178 -1281.06325422413 379.332333768955 0.360740872188728
 3156000    141.55521   -29.054005   -1281.0633   -1281.0633            0    379.33233   -901.73092   0.36074087 
3157000 140.132814280282 87.9818030219883 -906.942501213484 -1282.46316293964 375.520661726161 0.363459132889681
3158000 131.207871052731 102.522406850038 -939.849718330338 -1291.45377919544 351.604060865104 0.367672651548321
 3158000    131.20787    102.52241   -1291.4538   -1291.4538            0    351.60406   -939.84972   0.36767265 
3159000 143.177040629643 -15.0924452819788 -885.042232969906 -1268.72065488256 383.67842191265 0.355508608253281
3160000 145.471723827899 -57.1169952605035 -889.806755068997 -1279.63435023194 389.827595162946 0.35814174415884
 3160000    145.47172   -57.116995   -1279.6344   -1279.6344            0     389.8276   -889.80676   0.35814174 
3161000 142.56982809042 99.5663584185975 -914.25780128576 -1296.30904646819 382.051245182428 0.36843821500538
3162000 138.357960579825 28.9227437738033 -910.799140351854 -1281.56364100692 370.764500655067 0.362399868511295
 3162000    138.35796    28.922744   -1281.5636   -1281.5636            0     370.7645   -910.79914   0.36239987 
3163000 142.121500068552 105.690803315434 -868.570871905956 -1249.42071086311 380.84983895715 0.355632835750923
3164000 136.599828657626 5.33249729188512 -917.70984842902 -1283.76299816876 366.053149739745 0.363019000185123
 3164000    136.59983    5.3324973    -1283.763    -1283.763            0    366.05315   -917.70985     0.363019 
3165000 140.641613378486 12.7233693092405 -927.403935415549 -1304.28805062707 376.884115211519 0.36729181741369
3166000 146.262512786628 72.3692182986771 -908.560207067252 -1300.50691754657 391.946710479319 0.367307488440711
 3166000    146.26251    72.369218   -1300.5069   -1300.5069            0    391.94671   -908.56021   0.36730749 
3167000 142.16118713255 59.2961760061986 -908.98238292782 -1289.93857322467 380.956190296849 0.365194687298069
3168000 147.150809865887 70.7006613534884 -903.208018176606 -1297.53514118618 394.327123009573 0.36722248890552
 3168000    147.15081    70.700661   -1297.5351   -1297.5351            0    394.32712   -903.20802   0.36722249 
3169000 143.301532684223 -2.54613430843891 -932.916903978015 -1316.92893325419 384.012029276176 0.369536860163315
3170000 134.414372810873 -57.6988954074903 -918.336514741516 -1278.53319303336 360.196678291848 0.360302248692324
 3170000    134.41437   -57.698895   -1278.5332   -1278.5332            0    360.19668   -918.33651   0.36030225 
3171000 140.811374291641 19.8824749846392 -877.165505713067 -1254.50453743198 377.33903171891 0.355330116941572
3172000 139.139852196745 -71.6189666001004 -903.598007907898 -1276.45778124333 372.859773335432 0.356984657586974
 3172000    139.13985   -71.618967   -1276.4578   -1276.4578            0    372.85977   -903.59801   0.35698466 
3173000 135.204360184157 -21.4004267747878 -927.2637033007 -1289.57734886174 362.313645561039 0.362236289733943
3174000 140.418013157657 -96.4298154050965 -907.981749629907 -1284.26667254433 376.284922914419 0.356141930014491
 3174000    140.41801   -96.429815   -1284.2667   -1284.2667            0    376.28492   -907.98175   0.35614193 
3175000 141.293702802314 37.3967571846325 -935.203652772353 -1313.8352034664 378.63155069405 0.369016649037035
3176000 145.701912476319 103.585746806879 -889.881661146654 -1280.32610393391 390.444442787256 0.361937591617655
 3176000    145.70191    103.58575   -1280.3261   -1280.3261            0    390.44444   -889.88166   0.36193759 
3177000 143.817171020383 93.8723072591455 -899.962741999473 -1285.35655219685 385.393810197373 0.363353616541963
3178000 146.371798588358 35.4296450075537 -888.978612754227 -1281.21818166784 392.23956891361 0.361624106290611
 3178000     146.3718    35.429645   -1281.2182   -1281.2182            0    392.23957   -888.97861   0.36162411 
3179000 144.086565577883 100.05213919972 -917.538980737135 -1303.65470052448 386.11571978734 0.369680476922032
3180000 140.734389596243 4.92561002585458 -926.945520807235 -1304.07825292453 377.132732117298 0.366455561251899
 3180000    140.73439      4.92561   -1304.0783   -1304.0783            0    377.13273   -926.94552   0.36645556 
3181000 144.336009963494 -15.0869965533444 -922.367694732699 -1309.1518626721 386.784167939399 0.367325218608583
3182000 142.603755476072 6.54368664292188 -900.727040935631 -1282.86920296988 382.142162034245 0.36092416259538
 3182000    142.60376    6.5436866   -1282.8692   -1282.8692            0    382.14216   -900.72704   0.36092416 
3183000 136.632324557728 -1.75447814287907 -890.751562491035 -1256.89179306172 366.140230570688 0.353911017275801
3184000 139.141684094841 82.722889164346 -911.594224515614 -1284.45890687673 372.86468236112 0.362891987942878
 3184000    139.14168    82.722889   -1284.4589   -1284.4589            0    372.86468   -911.59422   0.36289199 
3185000 141.11859782153 -14.2635647024222 -888.880370331507 -1267.04268376237 378.162313430865 0.35757299540708
3186000 144.489723780577 75.1336239536905 -910.5619882211 -1297.75807049051 387.196082269414 0.36650452698723
 3186000    144.48972    75.133624   -1297.7581   -1297.7581            0    387.19608   -910.56199   0.36650453 
3187000 144.622677612938 72.6852367333096 -921.094202144718 -1308.64656721173 387.552365067014 0.370359745004286
3188000 136.82620229577 -86.4664163665712 -932.775975392368 -1299.43574948937 366.659774097002 0.363854037291662
 3188000     136.8262   -86.466416   -1299.4357   -1299.4357            0    366.65977   -932.77598   0.36385404 
3189000 139.221547815091 16.0065626747176 -918.457913668097 -1291.53661069259 373.078697024498 0.364304828994043
3190000 141.382694795009 74.7184529134845 -934.29085066333 -1313.16087749273 378.8700268294 0.370677243587798
 3190000    141.38269    74.718453   -1313.1609   -1313.1609            0    378.87003   -934.29085   0.37067724 
3191000 144.087888332482 7.1851257354918 -863.667801550251 -1249.78706598689 386.119264436642 0.353117281417174
3192000 132.861713489119 -46.897808363841 -931.552989460482 -1287.58893167538 356.0359422149 0.360601673705301
 3192000    132.86171   -46.897808   -1287.5889   -1287.5889            0    356.03594   -931.55299   0.36060167 
3193000 134.691435863138 -32.8122211764733 -953.376674715074 -1314.3158122322 360.939137517124 0.367900955491613
3194000 137.739543218441 -27.1313467481432 -942.316456359284 -1311.42375418172 369.107297822435 0.366515719836419
 3194000    137.73954   -27.131347   -1311.4238   -1311.4238            0     369.1073   -942.31646   0.36651572 
3195000 145.588626037707 28.294214715887 -884.274355722948 -1274.41521937629 390.140863653342 0.360421274773373
3196000 143.086830105598 23.3282638222144 -925.546222697832 -1308.9829031179 383.436680420066 0.368656682840894
 3196000    143.08683    23.328264   -1308.9829   -1308.9829            0    383.43668   -925.54622   0.36865668 
3197000 144.800104959977 104.241066907481 -901.268396319003 -1289.29622200608 388.027825687074 0.366303629481851
3198000 128.104970798869 -140.994728779992 -924.872029664916 -1268.16109905151 343.28906938659 0.354464177718133
 3198000    128.10497   -140.99473   -1268.1611   -1268.1611            0    343.28907   -924.87203   0.35446418 
3199000 144.999641221527 -90.2680177659154 -909.767038707335 -1298.32957133911 388.562532631771 0.361918713520613
3200000 139.222307821537 -87.0218777115027 -903.090787936011 -1276.17152158644 373.08073365043 0.357461516450437
 3200000    139.22231   -87.021878   -1276.1715   -1276.1715            0    373.08073   -903.09079   0.35746152 
Loop time of 610.068 on 36 procs for 3000000 steps with 900 atoms

Performance: 849.741 ns/day, 0.028 hours/ns, 4917.482 timesteps/s
99.6% CPU use with 36 MPI tasks x 1 OpenMP threads

MPI task timing breakdown:
Section |  min time  |  avg time  |  max time  |%varavg| %total
---------------------------------------------------------------
Pair    | 135.25     | 142.22     | 155.33     |  40.7 | 23.31
Bond    | 0.54059    | 0.60627    | 0.86181    |   7.0 |  0.10
Neigh   | 11.054     | 11.543     | 13.363     |  19.2 |  1.89
Comm    | 312.78     | 330.99     | 349.93     |  58.4 | 54.25
Output  | 0.21157    | 0.21288    | 0.23474    |   0.8 |  0.03
Modify  | 90.772     | 103.85     | 111.72     |  66.3 | 17.02
Other   |            | 20.65      |            |       |  3.38

Nlocal:    25 ave 32 max 20 min
Histogram: 4 4 5 1 5 11 3 2 0 1
Nghost:    1230.19 ave 1251 max 1214 min
Histogram: 5 1 4 8 3 3 6 5 0 1
Neighs:    3145.39 ave 3994 max 2473 min
Histogram: 4 4 3 3 4 9 5 1 2 1

Total # of neighbors = 113234
Ave neighs/atom = 125.816
Ave special neighs/atom = 0
Neighbor list builds = 53388
Dangerous builds = 0
unfix integrator
write_restart production.restart
undump traj1
Total wall time: 0:10:10
