LAMMPS (12 Dec 2018)
OMP_NUM_THREADS environment is not set. Defaulting to 1 thread. (../comm.cpp:87)
  using 1 OpenMP thread(s) per MPI task
# Lammps script to read in mBuild topologies and perform energy minimization
# Initialization
units           real
boundary        p p p
atom_style      full

# Assume ff info is included in data file
pair_style     lj/cut/coul/cut ${rcut} # read in from job.sp.r_cut
pair_style     lj/cut/coul/cut 14.0 
bond_style  none
angle_style none
dihedral_style  none
read_restart equilibrated_npt.restart
  restoring atom style full from restart
  triclinic box = (-0.161583 -0.161583 -0.161583) to (40.1416 40.1416 40.1416) with tilt (0 0 0)
  3 by 3 by 4 MPI processor grid
  restoring pair style lj/cut/coul/cut from restart
  restoring bond style harmonic from restart
  restoring angle style harmonic from restart
  restoring dihedral style opls from restart
  900 atoms
  0 = max # of 1-2 neighbors
  0 = max # of 1-3 neighbors
  0 = max # of 1-4 neighbors
  1 = max # of special neighbors

pair_modify shift no  #TODO: Look to make sure this shift is okay

neighbor        2.5 bin #skin cutoff

timestep 2.0
thermo 2000
thermo_style custom step temp press pe epair emol ke etotal density

variable tsample equal ${T} #kelvin, modified by job.sp.temperature
variable tsample equal 140.0 
variable psample equal ${P}/101.325 #kPa to atm modified by job.sp.pressure
variable psample equal 1318.0/101.325 
# ________________________________________________________________________________________

# Production
variable startstep equal step
variable t equal temp
variable pressure equal press
variable e equal etotal
variable p equal pe
variable k equal ke
variable d equal density
variable filename string "prlog.txt"
fix output_data all print 1000 "${startstep} ${t} ${pressure} $e $p $k $d" file ${filename} title "step temp press etotal pe ke density"
fix output_data all print 1000 "${startstep} ${t} ${pressure} $e $p $k $d" file prlog.txt title "step temp press etotal pe ke density"
dump traj1 all dcd 10000 prod.dcd
fix integrator all npt temp ${tsample} ${tsample} 100.0 iso ${psample} ${psample} 1000.0 pchain 10
fix integrator all npt temp 140 ${tsample} 100.0 iso ${psample} ${psample} 1000.0 pchain 10
fix integrator all npt temp 140 140 100.0 iso ${psample} ${psample} 1000.0 pchain 10
fix integrator all npt temp 140 140 100.0 iso 13.007648655317 ${psample} 1000.0 pchain 10
fix integrator all npt temp 140 140 100.0 iso 13.007648655317 13.007648655317 1000.0 pchain 10
fix zeromom all momentum 100 linear 1 1 1 rescale
run 3000000
Neighbor list info ...
  update every 1 steps, delay 10 steps, check yes
  max neighbors/atom: 2000, page size: 100000
  master list distance cutoff = 16.5
  ghost atom cutoff = 16.5
  binsize = 8.25, bins = 5 5 5
  1 neighbor lists, perpetual/occasional/extra = 1 0 0
  (1) pair lj/cut/coul/cut, perpetual
      attributes: half, newton on
      pair build: half/bin/newton/tri
      stencil: half/bin/3d/newton/tri
      bin: standard
Per MPI rank memory allocation (min/avg/max) = 5.731 | 5.759 | 5.981 Mbytes
Step Temp Press PotEng E_pair E_mol KinEng TotEng Density 
  200000    146.97619    3.5578225   -1303.5214   -1303.5214            0    393.85918   -909.66217   0.36623485 
201000 138.33313514046 -82.2213256373499 -950.820142697148 -1321.51811742489 370.697974727747 0.368709172387658
202000 139.259423287827 -18.4862166102045 -923.226962939569 -1296.40715669528 373.180193755708 0.363806085068609
  202000    139.25942   -18.486217   -1296.4072   -1296.4072            0    373.18019   -923.22696   0.36380609 
203000 139.145047123913 64.8356834230843 -880.101704428841 -1252.97539886118 372.87369443234 0.356707602600186
204000 144.40351794114 92.7105408891834 -915.658314343358 -1302.6233866667 386.96507232334 0.370540542162647
  204000    144.40352    92.710541   -1302.6234   -1302.6234            0    386.96507   -915.65831   0.37054054 
205000 142.220371812593 135.603136014278 -937.026579397738 -1318.14136973647 381.114790338729 0.374140875304926
206000 141.199196394333 -87.0721647404238 -935.458553513484 -1313.83685082755 378.378297314071 0.366887791721651
  206000     141.1992   -87.072165   -1313.8369   -1313.8369            0     378.3783   -935.45855   0.36688779 
207000 147.92990201423 14.9750878520117 -883.136767777082 -1279.55166159604 396.414893818958 0.359643982648614
208000 139.258447739048 -7.93502637625697 -891.021400540839 -1264.19898007143 373.177579530591 0.354204376981186
  208000    139.25845   -7.9350264    -1264.199    -1264.199            0    373.17758    -891.0214   0.35420438 
209000 141.845629930163 63.1354544898919 -890.749187283857 -1270.85976372458 380.110576440724 0.359681698164048
210000 141.045823988289 -6.39795838322475 -871.03324225861 -1249.0005401383 377.967297879687 0.352876582592434
  210000    141.04582   -6.3979584   -1249.0005   -1249.0005            0     377.9673   -871.03324   0.35287658 
211000 130.595310163442 -109.610698986275 -969.315927933357 -1319.27847983659 349.962551903231 0.367763844722104
212000 143.266162362603 -40.3777591446554 -897.139546865502 -1281.05679258475 383.917245719245 0.359150927385692
  212000    143.26616   -40.377759   -1281.0568   -1281.0568            0    383.91725   -897.13955   0.35915093 
213000 139.308337938988 36.429248471429 -898.001721908982 -1271.3129946148 373.311272705821 0.35924644300009
214000 142.834720805097 -22.1337455999132 -867.800943197558 -1250.56203416459 382.761090967034 0.351938821561742
  214000    142.83472   -22.133746    -1250.562    -1250.562            0    382.76109   -867.80094   0.35193882 
215000 137.159647875914 -73.4944005686652 -926.10240485609 -1293.65572915793 367.553324301844 0.360781823670268
216000 135.960352403472 99.9938824516155 -911.843338779347 -1276.18285315573 364.339514376384 0.364566435061694
  216000    135.96035    99.993882   -1276.1829   -1276.1829            0    364.33951   -911.84334   0.36456644 
217000 135.743283876609 -15.393345315927 -905.443743834127 -1269.20156920879 363.75782537466 0.358460928467079
218000 144.128474146025 4.46321090141282 -907.156202520608 -1293.38422671945 386.228024198846 0.363054767681028
  218000    144.12847    4.4632109   -1293.3842   -1293.3842            0    386.22802    -907.1562   0.36305477 
219000 139.802152557871 53.9340821320387 -902.030480450725 -1276.66505200989 374.634571559166 0.362186215356345
220000 150.940173745712 22.8706788933481 -903.948171595907 -1308.42983577403 404.481664178118 0.36627247575388
  220000    150.94017    22.870679   -1308.4298   -1308.4298            0    404.48166   -903.94817   0.36627248 
221000 134.264744038184 -151.692339855984 -912.086757355539 -1271.88246820788 359.795710852337 0.354510228337997
222000 146.57549947961 53.9439288140107 -910.599057459685 -1303.38449347708 392.785436017399 0.366021055947208
  222000     146.5755    53.943929   -1303.3845   -1303.3845            0    392.78544   -910.59906   0.36602106 
223000 141.311280331818 69.2082211389715 -898.904025552133 -1277.58267959985 378.678654047713 0.362269165340298
224000 136.777681717057 31.310269018724 -888.219662403103 -1254.74941356494 366.529751161836 0.357591824427186
  224000    136.77768    31.310269   -1254.7494   -1254.7494            0    366.52975   -888.21966   0.35759182 
225000 141.171093935806 96.1346709945224 -892.271596409556 -1270.57458620999 378.302989800436 0.360998086846173
226000 136.187175887461 32.8783994296994 -916.942869493917 -1281.89021370117 364.947344207248 0.36203186550186
  226000    136.18718    32.878399   -1281.8902   -1281.8902            0    364.94734   -916.94287   0.36203187 
227000 134.88678273387 -46.184393701794 -912.023236096717 -1273.48585404589 361.462617949172 0.358177534618951
228000 140.142873561489 28.262433343393 -927.746994902557 -1303.29461296978 375.547618067221 0.367532612921737
  228000    140.14287    28.262433   -1303.2946   -1303.2946            0    375.54762   -927.74699   0.36753261 
229000 132.691346451644 -7.93627423857413 -926.036471806319 -1281.61587325325 355.579401446931 0.36265676251265
230000 142.313467315301 -11.2318523572998 -923.785820112531 -1305.15008296032 381.364262847792 0.366200537342984
  230000    142.31347   -11.231852   -1305.1501   -1305.1501            0    381.36426   -923.78582   0.36620054 
231000 143.881262179153 -44.8556473437215 -884.713506810382 -1270.27906517734 385.565558366963 0.357094809896989
232000 141.923924076406 115.551929043063 -935.907366646569 -1316.22775168749 380.320385040926 0.372898629927957
  232000    141.92392    115.55193   -1316.2278   -1316.2278            0    380.32039   -935.90737   0.37289863 
233000 138.367855001464 -16.3543665459086 -889.098763641315 -1259.8897788553 370.79101521399 0.355165035182319
234000 140.564983605821 -52.7412650754841 -929.116778549057 -1305.79554526253 376.678766713476 0.365461937802729
  234000    140.56498   -52.741265   -1305.7955   -1305.7955            0    376.67877   -929.11678   0.36546194 
235000 140.498742028971 55.3003798591472 -905.299388220078 -1281.80064418491 376.501255964832 0.363953035838979
236000 134.651930062554 69.256281827028 -949.983114091807 -1310.81638600955 360.833271917739 0.369748672765347
  236000    134.65193    69.256282   -1310.8164   -1310.8164            0    360.83327   -949.98311   0.36974867 
237000 141.887824175384 40.0079444542654 -902.613910579909 -1282.83755697479 380.223646394881 0.36424674547475
238000 137.01067997325 56.3765575837515 -957.259939936161 -1324.41406776378 367.154127827617 0.374054225122837
  238000    137.01068    56.376558   -1324.4141   -1324.4141            0    367.15413   -957.25994   0.37405423 
239000 133.882962086038 44.7666954753998 -944.024204891882 -1302.79683623182 358.772631339938 0.368419292498599
240000 137.358511982252 -4.55765136827536 -949.153451109612 -1317.23968114941 368.086230039798 0.368714831133341
  240000    137.35851   -4.5576514   -1317.2397   -1317.2397            0    368.08623   -949.15345   0.36871483 
241000 141.260585008316 62.8753421124578 -909.891609318933 -1288.43441266297 378.542803344041 0.36401433124093
242000 135.613013332509 58.0691869335369 -907.897156875067 -1271.30588998911 363.408733114041 0.358324407185218
  242000    135.61301    58.069187   -1271.3059   -1271.3059            0    363.40873   -907.89716   0.35832441 
243000 136.127299508594 -66.1320865227429 -934.912139798477 -1299.69903038514 364.786890586664 0.364509616408152
244000 145.56161072732 -28.9313590388542 -881.675169696141 -1271.74363911916 390.068469423015 0.358615049824284
  244000    145.56161   -28.931359   -1271.7436   -1271.7436            0    390.06847   -881.67517   0.35861505 
245000 139.884098918542 -31.3144251559391 -902.020717605445 -1276.87488477998 374.854167174534 0.359718461622111
246000 137.335341015053 41.2212496564293 -918.650310393606 -1286.67444807495 368.024137681344 0.364814384597024
  246000    137.33534     41.22125   -1286.6744   -1286.6744            0    368.02414   -918.65031   0.36481438 
247000 135.764908062728 41.5629787267335 -935.56680638695 -1299.3825791362 363.815772749245 0.366400080201247
248000 140.704364449848 24.859888885215 -905.566655041903 -1282.61892732615 377.052272284243 0.363152662487529
  248000    140.70436    24.859889   -1282.6189   -1282.6189            0    377.05227   -905.56666   0.36315266 
249000 141.1310803524 -5.55701585997873 -888.606182289078 -1266.80194576001 378.19576347093 0.358354292715522
250000 136.181093723864 -28.7168497720915 -946.110839970922 -1311.04188551101 364.931045540086 0.368413292054882
  250000    136.18109    -28.71685   -1311.0419   -1311.0419            0    364.93105   -946.11084   0.36841329 
251000 140.284865957973 -5.80098938850229 -917.66044058216 -1293.58856252324 375.928121941076 0.365341731562294
252000 140.673709084853 -25.4202253128787 -899.916327155207 -1276.88645077921 376.970123624004 0.359488907381598
  252000    140.67371   -25.420225   -1276.8865   -1276.8865            0    376.97012   -899.91633   0.35948891 
253000 134.669208035427 -16.1208968617143 -903.369161509805 -1264.24873404486 360.879572535051 0.356391886797513
254000 134.249082628129 55.1073749335024 -972.978320604498 -1332.73206282088 359.753742216386 0.376040647802987
  254000    134.24908    55.107375   -1332.7321   -1332.7321            0    359.75374   -972.97832   0.37604065 
255000 142.496494722523 -33.9322063211197 -903.506493826049 -1285.36122404529 381.854730219243 0.359767676493222
256000 139.760306915603 27.7855909624614 -914.926824206358 -1289.44925997951 374.522435773156 0.362508474897597
  256000    139.76031    27.785591   -1289.4493   -1289.4493            0    374.52244   -914.92682   0.36250847 
257000 144.044597984667 63.3948024488108 -919.877187850779 -1305.88044505427 386.003257203495 0.370354982918095
258000 137.641592682785 -44.534414036536 -944.961726842944 -1313.80654189034 368.8448150474 0.366726215946144
  258000    137.64159   -44.534414   -1313.8065   -1313.8065            0    368.84482   -944.96173   0.36672622 
259000 138.871435781826 -18.0709123002039 -912.556765643056 -1284.69725056438 372.14048492132 0.362122473973494
260000 139.073638490797 8.57923609084174 -889.922129570376 -1262.60446684416 372.682337273788 0.357649154499649
  260000    139.07364    8.5792361   -1262.6045   -1262.6045            0    372.68234   -889.92213   0.35764915 
261000 141.481457491044 112.6331037655 -898.522844381855 -1277.65753037163 379.134685989778 0.364202623064199
262000 136.198987969337 78.3688026006774 -971.849186389908 -1336.82818400272 364.978997612807 0.377591710859868
  262000    136.19899    78.368803   -1336.8282   -1336.8282            0      364.979   -971.84919   0.37759171 
263000 136.220358548433 1.80621892297136 -933.866132223896 -1298.90239760831 365.036265384419 0.366252934825536
264000 138.589396529368 14.9065837029746 -892.707787273104 -1264.09247800546 371.384690732359 0.35837740113839
  264000     138.5894    14.906584   -1264.0925   -1264.0925            0    371.38469   -892.70779    0.3583774 
265000 146.636883362019 -30.5313830838806 -916.498954691624 -1309.44888405956 392.94992936794 0.365748200816233
266000 142.631780961738 -68.1600441787998 -885.278637240594 -1267.49590052059 382.217263279993 0.354781110945987
  266000    142.63178   -68.160044   -1267.4959   -1267.4959            0    382.21726   -885.27864   0.35478111 
267000 144.444488684342 23.1468375651901 -922.728171465869 -1309.80303506599 387.074863600121 0.367578162615084
268000 140.961119388139 -57.0210462467409 -870.903746073384 -1248.64405695033 377.740310876941 0.353717529814945
  268000    140.96112   -57.021046   -1248.6441   -1248.6441            0    377.74031   -870.90375   0.35371753 
269000 142.553486792821 71.309021788402 -929.933520325282 -1311.94097494431 382.007454619031 0.369191113456744
270000 143.038508187728 94.7146482546151 -906.632322615158 -1289.9395124611 383.307189845944 0.367872380890017
  270000    143.03851    94.714648   -1289.9395   -1289.9395            0    383.30719   -906.63232   0.36787238 
271000 141.256777665546 -4.51319093235695 -937.175439747132 -1315.7080403711 378.532600623971 0.368956229677596
272000 138.636069339473 60.599284576259 -924.740839175024 -1296.25060128788 371.50976211286 0.367982202593869
  272000    138.63607    60.599285   -1296.2506   -1296.2506            0    371.50976   -924.74084    0.3679822 
273000 141.340549558705 -42.1348995452244 -917.118993491822 -1295.87608169863 378.757088206803 0.365295607118313
274000 136.986060838667 -4.74010607946821 -942.079227968783 -1309.16738271395 367.088154745171 0.3688836241606
  274000    136.98606   -4.7401061   -1309.1674   -1309.1674            0    367.08815   -942.07923   0.36888362 
275000 128.655811666227 -71.243826650877 -940.105165878979 -1284.87035010761 344.765184228632 0.360015612912897
276000 137.93373883031 102.798441905699 -924.908049013003 -1294.53574218358 369.627693170577 0.36607569048397
  276000    137.93374    102.79844   -1294.5357   -1294.5357            0    369.62769   -924.90805   0.36607569 
277000 139.203134167374 78.5308438142065 -917.482554870747 -1290.51190795527 373.029353084528 0.365448679305276
278000 139.316529799702 50.3147605906388 -905.659839934545 -1278.99306476466 373.333224830111 0.362294493959592
  278000    139.31653    50.314761   -1278.9931   -1278.9931            0    373.33322   -905.65984   0.36229449 
279000 142.71935496588 18.7586895140415 -934.992859759891 -1317.44479932291 382.45193956302 0.371895464615982
280000 138.966975775895 17.2271987180696 -885.044939969307 -1257.4414480211 372.396508051793 0.357864661550658
  280000    138.96698    17.227199   -1257.4414   -1257.4414            0    372.39651   -885.04494   0.35786466 
281000 142.255366023712 -12.6668162517322 -917.771766292518 -1298.98033230673 381.208566014208 0.364980483516713
282000 146.492822430216 124.793873456609 -900.200825103185 -1292.7647074434 392.563882340214 0.36713254688029
  282000    146.49282    124.79387   -1292.7647   -1292.7647            0    392.56388   -900.20083   0.36713255 
283000 143.88672284707 69.9197440362819 -870.671381123884 -1256.25157270606 385.580191582176 0.356886303566867
284000 142.733069149581 10.5477904781746 -931.017766279196 -1313.50645640178 382.488690122586 0.369583625410234
  284000    142.73307     10.54779   -1313.5065   -1313.5065            0    382.48869   -931.01777   0.36958363 
285000 144.041886674011 28.1854633219104 -928.212097253368 -1314.20808882692 385.99599157355 0.369717005444912
286000 139.060372709443 13.3778541721448 -904.867869177029 -1277.51465749665 372.646788319619 0.360468314481801
  286000    139.06037    13.377854   -1277.5147   -1277.5147            0    372.64679   -904.86787   0.36046831 
287000 140.14805705811 -16.1267638436818 -881.000989406257 -1256.5624979394 375.561508533141 0.353788209033505
288000 140.591688835626 -33.0587121169299 -922.519704963491 -1299.2700349694 376.750330005908 0.365655020837359
  288000    140.59169   -33.058712     -1299.27     -1299.27            0    376.75033    -922.5197   0.36565502 
289000 137.452548103162 -137.552259058569 -923.432098719487 -1291.77032188832 368.338223168828 0.359442603788157
290000 144.019225532332 172.769521426019 -907.406767580699 -1293.34203299983 385.935265419132 0.370638871134133
  290000    144.01923    172.76952    -1293.342    -1293.342            0    385.93527   -907.40677   0.37063887 
291000 138.738360602946 -2.36685526396763 -903.959421937987 -1275.74329888359 371.783876945602 0.360019601047482
292000 139.225312620757 121.355218348145 -914.449065389241 -1287.53785114508 373.088785755836 0.36622043698619
  292000    139.22531    121.35522   -1287.5379   -1287.5379            0    373.08879   -914.44907   0.36622044 
293000 142.101148221398 48.0509711458256 -869.667969632022 -1250.46327076268 380.795301130659 0.355198468008334
294000 143.07374583244 130.560680294308 -942.032819603049 -1325.43443746521 383.401617862166 0.376958040693057
  294000    143.07375    130.56068   -1325.4344   -1325.4344            0    383.40162   -942.03282   0.37695804 
295000 139.219654122577 54.9896481127658 -928.055587137178 -1301.1292095425 373.073622405326 0.368151657424067
296000 135.100554674806 29.8543348209785 -921.88825649351 -1283.92372942409 362.035472930577 0.362546519352103
  296000    135.10055    29.854335   -1283.9237   -1283.9237            0    362.03547   -921.88826   0.36254652 
297000 148.587041125364 58.5408268480579 -920.896941917274 -1319.07280310941 398.175861192136 0.372334722279447
298000 133.38952269311 -4.13805996879978 -922.573432493836 -1280.02377049152 357.450337997683 0.360055314245505
  298000    133.38952     -4.13806   -1280.0238   -1280.0238            0    357.45034   -922.57343   0.36005531 
299000 143.594462187615 54.4572979781366 -897.666421282451 -1282.46342787831 384.797006595857 0.362600682953815
300000 138.56426772848 -46.6151964011537 -903.188615355439 -1274.50596722797 371.317351872534 0.357876297948715
  300000    138.56427   -46.615196    -1274.506    -1274.506            0    371.31735   -903.18862    0.3578763 
301000 135.433705209053 -82.0313667628534 -918.512296166884 -1281.44052865358 362.928232486697 0.359445152156423
302000 131.752308884113 -80.745276226175 -923.672017886286 -1276.73503506907 353.063017182788 0.358921103582553
  302000    131.75231   -80.745276    -1276.735    -1276.735            0    353.06302   -923.67202    0.3589211 
303000 132.04583082782 56.5827932503011 -926.681542216266 -1280.53112430962 353.849582093356 0.362315620836745
304000 147.763672487595 38.2887874037563 -869.196498702827 -1265.16593924119 395.969440538364 0.358353686063831
  304000    147.76367    38.288787   -1265.1659   -1265.1659            0    395.96944    -869.1965   0.35835369 
305000 141.323036526651 19.5896443780037 -922.423027433905 -1301.13318512397 378.710157690068 0.368889599996946
306000 135.334273221891 24.7710613450939 -946.413874032939 -1309.07565382754 362.661779794604 0.369899682498561
  306000    135.33427    24.771061   -1309.0757   -1309.0757            0    362.66178   -946.41387   0.36989968 
307000 134.9224693624 33.3278008926276 -926.720680631013 -1288.27892976 361.558249128988 0.364655049971466
308000 150.357613900038 83.4241950295339 -868.849896410609 -1271.77044687053 402.92055045992 0.360867721808838
  308000    150.35761    83.424195   -1271.7704   -1271.7704            0    402.92055    -868.8499   0.36086772 
309000 138.737171280595 -42.5882219878064 -914.469220959109 -1286.24991082024 371.78068986113 0.359477430207601
310000 144.392454151197 60.1637301930357 -945.536342612227 -1332.471766764 386.935424151769 0.376450919613614
  310000    144.39245     60.16373   -1332.4718   -1332.4718            0    386.93542   -945.53634   0.37645092 
311000 143.761477264581 38.5686831898733 -886.106142429258 -1271.35070738282 385.244564953566 0.358819299384096
312000 138.668962374483 122.546402120013 -940.072511294 -1311.67041845937 371.597907165368 0.372914524730549
  312000    138.66896     122.5464   -1311.6704   -1311.6704            0    371.59791   -940.07251   0.37291452 
313000 141.705172067295 45.9654131412086 -890.122735385802 -1269.85692011642 379.734184730619 0.360419428818362
314000 139.417175288514 -47.6059497354428 -932.549317501006 -1306.15224690211 373.602929401109 0.366017217723404
  314000    139.41718    -47.60595   -1306.1522   -1306.1522            0    373.60293   -932.54932   0.36601722 
315000 134.34767219481 -62.2131362731361 -948.076271043757 -1308.09420847744 360.017937433683 0.36549461857103
316000 142.482380142336 -58.1532292925217 -915.87568540343 -1297.69259210133 381.8169066979 0.362991909793838
  316000    142.48238   -58.153229   -1297.6926   -1297.6926            0    381.81691   -915.87569   0.36299191 
317000 147.116694365244 2.3121254726711 -905.150478942818 -1299.38618099976 394.235702056941 0.364910234937406
318000 145.8412785279 65.6819095145966 -903.709268983635 -1294.52717770163 390.817908717991 0.365000359976529
  318000    145.84128     65.68191   -1294.5272   -1294.5272            0    390.81791   -903.70927   0.36500036 
319000 141.797309605672 39.5830310379456 -886.675404594966 -1266.65649473142 379.981090136459 0.358783243439758
320000 145.002003539621 -0.0612325712145738 -902.157290834006 -1290.72615388352 388.568863049514 0.364501846529901
  320000      145.002 -0.061232571   -1290.7262   -1290.7262            0    388.56886   -902.15729   0.36450185 
321000 136.397641027587 -0.755189125667458 -903.278607749781 -1268.7899455448 365.511337795021 0.358523383587256
322000 137.732798991706 -11.9160761168992 -922.429293435727 -1291.51851842847 369.089224992747 0.364231390652301
  322000     137.7328   -11.916076   -1291.5185   -1291.5185            0    369.08922   -922.42929   0.36423139 
323000 140.510625033209 35.125344180463 -904.898143739258 -1281.43124316372 376.533099424463 0.36391887812087
324000 140.74151170672 -6.07430211040198 -914.642926520733 -1291.79474410101 377.151817580278 0.363453396652797
  324000    140.74151   -6.0743021   -1291.7947   -1291.7947            0    377.15182   -914.64293    0.3634534 
325000 145.70328768932 -11.147955574306 -892.055052128821 -1282.50318014069 390.448128011866 0.360680752354896
326000 139.540408727234 37.5134502977232 -899.786520560836 -1273.71968455184 373.933163991007 0.362097740428005
  326000    139.54041     37.51345   -1273.7197   -1273.7197            0    373.93316   -899.78652   0.36209774 
327000 143.83518481438 -36.8966560282986 -886.740190045516 -1272.18227267556 385.442082630042 0.35731901644625
328000 142.884305393463 -2.55063205504665 -903.726303741198 -1286.62026892139 382.89396518019 0.362332017122723
  328000    142.88431   -2.5506321   -1286.6203   -1286.6203            0    382.89397    -903.7263   0.36233202 
329000 135.162306772844 -53.010279468833 -959.556328814537 -1321.75728182084 362.2009530063 0.370297743212863
330000 138.924169024442 47.5930300111755 -892.243769265089 -1264.52556600023 372.281796735143 0.357764786379394
  330000    138.92417     47.59303   -1264.5256   -1264.5256            0     372.2818   -892.24377   0.35776479 
331000 142.772388473371 16.9707612941365 -891.451254832425 -1274.04531084354 382.594056011112 0.359550612487397
332000 139.764611320858 -6.61237050491301 -932.06973940864 -1306.60370990418 374.533970495541 0.367413682194034
  332000    139.76461   -6.6123705   -1306.6037   -1306.6037            0    374.53397   -932.06974   0.36741368 
333000 141.77122244637 27.344640091059 -903.471633165362 -1283.38281628272 379.911183117363 0.361919222518021
334000 146.798038550845 55.9187622440801 -894.810631763919 -1288.19241646467 393.381784700749 0.362147229381993
  334000    146.79804    55.918762   -1288.1924   -1288.1924            0    393.38178   -894.81063   0.36214723 
335000 141.314678399983 -33.0921679168131 -902.727565195264 -1281.41532521015 378.687760014883 0.359126328728416
336000 143.067646115189 29.8327274596007 -930.637718968154 -1314.02299112378 383.385272155628 0.371084299318721
  336000    143.06765    29.832727    -1314.023    -1314.023            0    383.38527   -930.63772    0.3710843 
337000 139.575534353408 31.1192721865794 -905.789562910163 -1279.81685473591 374.027291825749 0.361055223819336
338000 138.244250655975 19.5816053299655 -924.659147673615 -1295.11893436095 370.459786687333 0.366410878342011
  338000    138.24425    19.581605   -1295.1189   -1295.1189            0    370.45979   -924.65915   0.36641088 
339000 142.316642034229 -2.15328044943848 -926.36361301131 -1307.73638330655 381.372770295236 0.367804858702062
340000 132.875366265557 19.9380822476969 -944.319652267629 -1300.39218048609 356.072528218461 0.366224554256408
  340000    132.87537    19.938082   -1300.3922   -1300.3922            0    356.07253   -944.31965   0.36622455 
341000 147.516574621979 -41.0515748471205 -852.328493247086 -1247.6357737162 395.307280469118 0.350863154311649
342000 138.32722202187 39.3122714139431 -901.445555446602 -1272.12768450525 370.682129058643 0.361223892645723
  342000    138.32722    39.312271   -1272.1277   -1272.1277            0    370.68213   -901.44556   0.36122389 
343000 141.985639641564 -41.4858506839366 -890.608384953112 -1271.09415217084 380.485767217728 0.35797067413018
344000 134.583259778323 120.975620659304 -916.813921698561 -1277.46317454334 360.649252844779 0.364363928624179
  344000    134.58326    120.97562   -1277.4632   -1277.4632            0    360.64925   -916.81392   0.36436393 
345000 142.375057394817 42.3197677995255 -898.346392554782 -1279.87570130945 381.529308754665 0.362138621022506
346000 142.669835418888 -74.8025007609165 -893.155066560491 -1275.47430620486 382.319239644371 0.355416225852209
  346000    142.66984   -74.802501   -1275.4743   -1275.4743            0    382.31924   -893.15507   0.35541623 
347000 138.251097371733 68.1353169817871 -918.398191100129 -1288.87632526193 370.478134161802 0.364797747810031
348000 143.983027785255 -68.5618140076048 -886.943373017324 -1272.78163758762 385.838264570294 0.355843538953943
  348000    143.98303   -68.561814   -1272.7816   -1272.7816            0    385.83826   -886.94337   0.35584354 
349000 133.443369743404 38.2697279758564 -919.864229979739 -1277.45886451541 357.594634535668 0.362388808756571
350000 139.35509902426 -0.239807923000349 -914.564727452549 -1288.00130809409 373.436580641542 0.363852051530179
  350000     139.3551  -0.23980792   -1288.0013   -1288.0013            0    373.43658   -914.56473   0.36385205 
351000 137.87256934025 27.7365262869484 -905.210320031676 -1274.67409436923 369.463774337557 0.360432597653229
352000 134.537816582523 -28.7400288965744 -950.779201843639 -1311.30667836468 360.527476521043 0.367752718930452
  352000    134.53782   -28.740029   -1311.3067   -1311.3067            0    360.52748    -950.7792   0.36775272 
353000 131.189660818221 28.7212674837674 -946.871323429291 -1298.42658545061 351.555262021318 0.365539029647009
354000 135.807009738459 14.1492452191731 -929.300580003799 -1293.22917464427 363.928594640474 0.365667842880125
  354000    135.80701    14.149245   -1293.2292   -1293.2292            0    363.92859   -929.30058   0.36566784 
355000 139.447880437432 123.955626143674 -917.918518760226 -1291.60373022995 373.685211469728 0.36822127223096
356000 134.011820818928 -10.5052311009339 -912.930763193751 -1272.04870349571 359.117940301957 0.359725201098305
  356000    134.01182   -10.505231   -1272.0487   -1272.0487            0    359.11794   -912.93076    0.3597252 
357000 142.564286172879 34.1042414578584 -898.214241846804 -1280.25063608548 382.036394238679 0.363157554849397
358000 141.636486005764 -51.9023444913646 -896.796897763793 -1276.34702114226 379.550123378467 0.358969980935699
  358000    141.63649   -51.902344    -1276.347    -1276.347            0    379.55012    -896.7969   0.35896998 
359000 136.827934902062 -14.0734192552031 -952.394869176041 -1319.0592862217 366.664417045655 0.369260088373271
360000 142.135564784084 157.118369787193 -890.047474423735 -1270.93500327751 380.88752885377 0.362554437412211
  360000    142.13556    157.11837    -1270.935    -1270.935            0    380.88753   -890.04747   0.36255444 
361000 145.622381619235 132.836684389969 -925.284890224691 -1315.51621033805 390.23132011336 0.373731500036629
362000 141.742701473967 165.257580749492 -903.835455763616 -1283.67020985552 379.834754091908 0.365222602001181
  362000     141.7427    165.25758   -1283.6702   -1283.6702            0    379.83475   -903.83546    0.3652226 
363000 129.374059494129 -67.7188237482511 -956.41557190203 -1303.10547947974 346.689907577708 0.365176460730997
364000 136.232657371933 -108.8535775431 -941.840388532759 -1306.90961166775 365.069223134987 0.363714716401353
  364000    136.23266   -108.85358   -1306.9096   -1306.9096            0    365.06922   -941.84039   0.36371472 
365000 135.206585725838 39.195740133372 -913.640924433589 -1275.96053388602 362.31960945243 0.361887117652509
366000 145.683594896752 13.2356529475446 -896.6972556336 -1287.09261191934 390.395356285741 0.362346378501438
  366000    145.68359    13.235653   -1287.0926   -1287.0926            0    390.39536   -896.69726   0.36234638 
367000 140.987575276387 100.206627993074 -904.722283401823 -1282.5334893986 377.811205996779 0.364474513199389
368000 142.13617976414 -17.1676185182843 -923.536589411251 -1304.42576625674 380.88917684549 0.366694847314161
  368000    142.13618   -17.167619   -1304.4258   -1304.4258            0    380.88918   -923.53659   0.36669485 
369000 138.225767175449 -33.8217971495269 -904.623105963684 -1275.0333615767 370.410255613018 0.357238332121147
370000 134.971309765489 160.985675279094 -947.932753369405 -1309.62188248236 361.689129112959 0.374410779487848
  370000    134.97131    160.98568   -1309.6219   -1309.6219            0    361.68913   -947.93275   0.37441078 
371000 139.49574600782 57.2105348185173 -915.567378690241 -1289.38085783773 373.813479147489 0.364584711966061
372000 138.991449251616 -78.709475754004 -923.647889285685 -1296.10998009085 372.46209080516 0.36287160409333
  372000    138.99145   -78.709476     -1296.11     -1296.11            0    372.46209   -923.64789    0.3628716 
373000 131.886877949775 0.88312905061242 -953.481183614021 -1306.904812013 353.423628398976 0.367460603616417
374000 132.806784416834 -62.6373624592472 -893.34089052371 -1249.22963665411 355.888746130396 0.352106174473813
  374000    132.80678   -62.637362   -1249.2296   -1249.2296            0    355.88875   -893.34089   0.35210617 
375000 139.504713535329 -34.5789478258971 -932.917745853201 -1306.7552557167 373.837509863503 0.366845892145154
376000 135.117969411402 78.005350732434 -915.368011413544 -1277.45015145378 362.082140040234 0.364183707490279
  376000    135.11797    78.005351   -1277.4502   -1277.4502            0    362.08214   -915.36801   0.36418371 
377000 142.6852601496 -3.72725915904319 -872.074684812571 -1254.43525885184 382.360574039273 0.35601479517853
378000 136.12819326485 -24.4460714342939 -925.974400572478 -1290.76368620089 364.789285628414 0.363731440732681
  378000    136.12819   -24.446071   -1290.7637   -1290.7637            0    364.78929    -925.9744   0.36373144 
379000 137.027047625308 87.0326675980938 -939.153816874864 -1306.35180588919 367.197989014329 0.370641431089063
380000 141.317033217499 27.4627052643708 -908.670989563152 -1287.36505989612 378.694070332964 0.363349907390377
  380000    141.31703    27.462705   -1287.3651   -1287.3651            0    378.69407   -908.67099   0.36334991 
381000 136.748953415183 71.5294544353007 -953.660141369556 -1320.11290791515 366.452766545598 0.371950769616289
382000 143.871784801572 -9.07060766235478 -935.339080736746 -1320.87924211786 385.540161381118 0.370357293705924
  382000    143.87178   -9.0706077   -1320.8792   -1320.8792            0    385.54016   -935.33908   0.37035729 
383000 139.8898839418 -74.2843403262364 -900.568771657417 -1275.43844123782 374.869669580398 0.35799282782116
384000 134.187051127461 -0.146256169886424 -926.976547243269 -1286.56406065523 359.587513411959 0.362880576116693
  384000    134.18705  -0.14625617   -1286.5641   -1286.5641            0    359.58751   -926.97655   0.36288058 
385000 133.166648741351 -69.5554848483434 -959.885463746163 -1316.738555665 356.853091918841 0.366820482737773
386000 139.989782520591 138.835076891726 -958.670519986332 -1333.80789260692 375.137372620587 0.377701765248095
  386000    139.98978    138.83508   -1333.8079   -1333.8079            0    375.13737   -958.67052   0.37770177 
387000 140.121389336707 -40.2509241904498 -910.066673273361 -1285.55671902714 375.490045753783 0.359014466003411
388000 141.444338688399 -83.5833553492122 -904.639390092997 -1283.6746070369 379.035216943908 0.356637834978592
  388000    141.44434   -83.583355   -1283.6746   -1283.6746            0    379.03522   -904.63939   0.35663783 
389000 138.322259140332 21.9904285818648 -920.511751754294 -1291.1805815399 370.668829785602 0.365133623872192
390000 143.129396894379 36.7909490997903 -905.331842738725 -1288.8825914359 383.550748697171 0.364612429199144
  390000     143.1294    36.790949   -1288.8826   -1288.8826            0    383.55075   -905.33184   0.36461243 
391000 136.271173695505 -1.03781718894053 -927.227983897664 -1292.40042108276 365.172437185093 0.363670540835731
392000 137.865438929827 8.52329670729206 -907.117232102861 -1276.56189873567 369.44466663281 0.359416593202147
  392000    137.86544    8.5232967   -1276.5619   -1276.5619            0    369.44467   -907.11723   0.35941659 
393000 138.830777252167 74.5754106167879 -901.193373800261 -1273.22490409849 372.031530298232 0.359718094449173
394000 141.320573236666 94.5106497073371 -882.513862168462 -1261.21741886154 378.703556693078 0.359363082869713
  394000    141.32057     94.51065   -1261.2174   -1261.2174            0    378.70356   -882.51386   0.35936308 
395000 145.340903200083 69.5605977072312 -896.230550452254 -1285.70757926871 389.47702881646 0.364110233960775
396000 136.097458891256 24.3919358803161 -901.710322925954 -1266.41724817098 364.706925245024 0.357841951518516
  396000    136.09746    24.391936   -1266.4172   -1266.4172            0    364.70693   -901.71032   0.35784195 
397000 143.917852429836 -11.6143943509251 -892.501940144971 -1278.16555117162 385.663611026649 0.360177828712735
398000 134.34330195642 -39.8882786841643 -940.810620645066 -1300.81684694014 360.006226295072 0.364368171214626
  398000     134.3433   -39.888279   -1300.8168   -1300.8168            0    360.00623   -940.81062   0.36436817 
399000 137.05608532453 33.0377975544069 -925.942117075997 -1293.21791981356 367.275802737567 0.364714024546923
400000 152.153228115405 80.6009387620645 -917.013060451403 -1324.7454049356 407.732344484201 0.372706804885112
  400000    152.15323    80.600939   -1324.7454   -1324.7454            0    407.73234   -917.01306    0.3727068 
401000 132.305585529975 129.019357822991 -940.256805976137 -1294.80246527411 354.545659297976 0.369177360351355
402000 141.320748636677 48.9038638928399 -905.998106448214 -1284.70213316916 378.704026720947 0.364099908418098
  402000    141.32075    48.903864   -1284.7021   -1284.7021            0    378.70403   -905.99811   0.36409991 
403000 141.736769893179 -66.3120024330365 -900.349453283536 -1280.1683122323 379.81885894876 0.359007252652624
404000 143.544426509504 -131.290817981162 -890.187457075378 -1274.85038065113 384.662923575752 0.355110868309837
  404000    143.54443   -131.29082   -1274.8504   -1274.8504            0    384.66292   -890.18746   0.35511087 
405000 129.606153066084 -132.633931116786 -941.834089634965 -1289.14594955246 347.311859917498 0.360369443063398
406000 133.584635839347 -25.868625261365 -950.818804580856 -1308.79199668778 357.973192106928 0.366655203183644
  406000    133.58464   -25.868625    -1308.792    -1308.792            0    357.97319    -950.8188    0.3666552 
407000 142.635497651041 -13.0164215890354 -917.168983276534 -1299.39620634813 382.227223071593 0.365792777081884
408000 136.836284590423 -17.1961357742914 -908.811411738884 -1275.49820384719 366.686792108301 0.360013914643532
  408000    136.83628   -17.196136   -1275.4982   -1275.4982            0    366.68679   -908.81141   0.36001391 
409000 144.986471170911 23.4419264039512 -913.216897076756 -1301.74413728863 388.527240211879 0.366774683128759
410000 138.741488301027 -14.7045290608931 -897.41224901295 -1269.20450740196 371.792258389014 0.357714916030233
  410000    138.74149   -14.704529   -1269.2045   -1269.2045            0    371.79226   -897.41225   0.35771492 
411000 147.751486625765 40.3823839423252 -901.779894002563 -1297.7166794992 395.936785496633 0.366421710860891
412000 138.447667745232 -44.7562193468 -904.40892875627 -1275.4138220295 371.004893273229 0.359442382271039
  412000    138.44767   -44.756219   -1275.4138   -1275.4138            0    371.00489   -904.40893   0.35944238 
413000 142.580598986725 -28.440560403059 -899.772167374959 -1281.85227584775 382.08010847279 0.360796255049379
414000 138.774324516117 14.7944443736465 -899.248294997825 -1271.12854617627 371.880251178442 0.360053059665939
  414000    138.77432    14.794444   -1271.1285   -1271.1285            0    371.88025   -899.24829   0.36005306 
415000 139.971254605151 66.2794969367732 -917.273503580883 -1292.36122605277 375.087722471891 0.367130468617796
416000 139.115193791288 142.143080376789 -908.487603818218 -1281.28129883515 372.793695016931 0.364866756802382
  416000    139.11519    142.14308   -1281.2813   -1281.2813            0     372.7937    -908.4876   0.36486676 
417000 144.40216497875 -9.34089829472823 -930.421461852771 -1317.38290857754 386.961446724764 0.368979599239747
418000 144.402385217225 -48.8761765401732 -880.814260084434 -1267.77629699286 386.962036908429 0.357202757515253
  418000    144.40239   -48.876177   -1267.7763   -1267.7763            0    386.96204   -880.81426   0.35720276 
419000 143.842723203982 41.85344584958 -883.685966869439 -1269.14825048571 385.462283616272 0.359536338866942
420000 139.014361634878 86.4765640694948 -919.482770800897 -1292.00626102466 372.523490223764 0.365661579588108
  420000    139.01436    86.476564   -1292.0063   -1292.0063            0    372.52349   -919.48277   0.36566158 
421000 139.86451861352 94.76880665543 -922.769661480927 -1297.57135836764 374.801696886712 0.36945467793201
422000 131.213922832095 39.342941086775 -953.206853607692 -1304.82713171787 351.620278110173 0.368926133679952
  422000    131.21392    39.342941   -1304.8271   -1304.8271            0    351.62028   -953.20685   0.36892613 
423000 130.392121414703 64.8189509472614 -940.426751094594 -1289.84480830703 349.418057212438 0.365854898356398
424000 141.133774622719 -67.6830970794322 -917.987748165504 -1296.19073160257 378.202983437064 0.362971664827675
  424000    141.13377   -67.683097   -1296.1907   -1296.1907            0    378.20298   -917.98775   0.36297166 
425000 134.32679419288 47.3019212165819 -929.383371161733 -1289.3453608066 359.961989644862 0.364903336935262
426000 135.473343704392 -24.2386591338164 -915.603067469411 -1278.63752114403 363.034453674619 0.359475093694769
  426000    135.47334   -24.238659   -1278.6375   -1278.6375            0    363.03445   -915.60307   0.35947509 
427000 143.799684271497 -13.391982414161 -902.195754673707 -1287.54270478662 385.346950112911 0.362103992314682
428000 136.523220973155 56.7118337044891 -905.858556534445 -1271.70641696694 365.8478604325 0.363120203850547
  428000    136.52322    56.711834   -1271.7064   -1271.7064            0    365.84786   -905.85856    0.3631202 
429000 140.222934571344 84.4335206277476 -891.47288076915 -1267.23504218622 375.762161417068 0.360613450835328
430000 137.333141450011 28.7135445187087 -923.921912527892 -1291.9401559287 368.018243400805 0.365975012989066
  430000    137.33314    28.713545   -1291.9402   -1291.9402            0    368.01824   -923.92191   0.36597501 
431000 138.578849375776 10.6147941214773 -927.183369357305 -1298.53979637344 371.356427016137 0.364729134437009
432000 142.369022720756 39.346726616618 -912.228853660052 -1293.74199100755 381.513137347502 0.365239970382543
  432000    142.36902    39.346727    -1293.742    -1293.742            0    381.51314   -912.22885   0.36523997 
433000 137.229574142256 25.6298360532904 -900.429337774319 -1268.17004686497 367.740709090651 0.359884737573787
434000 145.35943438213 21.4456435392551 -913.052890994777 -1302.57957871362 389.526687718842 0.367432078473721
  434000    145.35943    21.445644   -1302.5796   -1302.5796            0    389.52669   -913.05289   0.36743208 
435000 147.096266708354 130.991525924288 -891.260365683058 -1285.44132676251 394.180961079447 0.365194302345561
436000 137.088406793023 106.795383254326 -961.087304352137 -1328.44972048785 367.36241613571 0.376396195978563
  436000    137.08841    106.79538   -1328.4497   -1328.4497            0    367.36242    -961.0873    0.3763962 
437000 143.967412953281 31.7779191471705 -868.651879377338 -1254.44830012921 385.796420751871 0.355334392270946
438000 144.645902615244 46.9583445847775 -890.70730102062 -1278.32190324657 387.614602225951 0.360720770022876
  438000     144.6459    46.958345   -1278.3219   -1278.3219            0     387.6146    -890.7073   0.36072077 
439000 143.029021937522 -15.451232184747 -897.253078750781 -1280.53484783448 383.281769083699 0.359847089474512
440000 137.057248477708 121.903851817264 -945.454518383647 -1312.73343807889 367.278919695241 0.372900192544195
  440000    137.05725    121.90385   -1312.7334   -1312.7334            0    367.27892   -945.45452   0.37290019 
441000 143.00962830885 1.29211431908435 -887.903563983415 -1271.13336302491 383.229799041495 0.360393629558218
442000 137.941133998834 74.3043574647442 -927.789003480918 -1297.43651384129 369.647510360376 0.366601410741149
  442000    137.94113    74.304357   -1297.4365   -1297.4365            0    369.64751     -927.789   0.36660141 
443000 139.742500547619 -2.86382644082793 -923.07416751853 -1297.54888670851 374.474719189981 0.364618627207051
444000 141.228435672932 2.36050635975169 -901.736043169057 -1280.19269438835 378.456651219289 0.362059095484241
  444000    141.22844    2.3605064   -1280.1927   -1280.1927            0    378.45665   -901.73604    0.3620591 
445000 140.464844150737 56.3282211809076 -888.930986256529 -1265.34140444199 376.410418185464 0.359273694757392
446000 139.603278511676 12.9509816201551 -928.419780919164 -1302.52142010406 374.101639184896 0.366137816694008
  446000    139.60328    12.950982   -1302.5214   -1302.5214            0    374.10164   -928.41978   0.36613782 
447000 139.907335180597 61.9585367068753 -918.262732097056 -1293.17916660382 374.916434506764 0.366102443995066
448000 141.240976570874 13.6313711081001 -897.879237321062 -1276.36949498948 378.490257668413 0.358588223785911
  448000    141.24098    13.631371   -1276.3695   -1276.3695            0    378.49026   -897.87924   0.35858822 
449000 138.521639401093 -24.7925406531343 -880.490023756159 -1251.69314244362 371.20311868746 0.353632436026853
450000 137.356344048414 -107.561134942909 -893.787326870369 -1261.86774739329 368.080420522921 0.354270169304773
  450000    137.35634   -107.56113   -1261.8677   -1261.8677            0    368.08042   -893.78733   0.35427017 
451000 139.736783929414 -60.9770318967953 -901.749959012459 -1276.20935910489 374.459400092436 0.358890463032438
452000 145.082216350016 54.8896725193785 -922.300514100447 -1311.08432728704 388.783813186589 0.37029637298336
  452000    145.08222    54.889673   -1311.0843   -1311.0843            0    388.78381   -922.30051   0.37029637 
453000 130.570525006327 -59.9126490127619 -948.07236572926 -1297.96849965146 349.896133922199 0.364359011277645
454000 140.948576501739 8.95121442894833 -892.18035225538 -1269.88705135463 377.706699099249 0.359226752648435
  454000    140.94858    8.9512144   -1269.8871   -1269.8871            0     377.7067   -892.18035   0.35922675 
455000 137.913679713951 69.4293071611044 -907.203764101557 -1276.77770389048 369.57393978892 0.362607509735427
456000 142.403996203899 -22.1459075221154 -889.918651467873 -1271.5255089451 381.606857477225 0.356749288026195
  456000      142.404   -22.145908   -1271.5255   -1271.5255            0    381.60686   -889.91865   0.35674929 
457000 136.208680728051 62.8800479898882 -930.489854472039 -1295.4948262379 365.004971765862 0.366689120910757
458000 139.920314251274 8.56323318298284 -950.25548763054 -1325.20670277904 374.951215148502 0.371392250680372
  458000    139.92031    8.5632332   -1325.2067   -1325.2067            0    374.95122   -950.25549   0.37139225 
459000 137.281664872876 53.3255364707644 -948.352035517322 -1316.23233465141 367.880299134086 0.370487996565002
460000 140.399587249188 -71.8133641489087 -911.873344816544 -1288.10889093527 376.235546118721 0.359958966729348
  460000    140.39959   -71.813364   -1288.1089   -1288.1089            0    376.23555   -911.87334   0.35995897 
461000 146.152029575622 24.6120470912979 -904.327755813277 -1295.97839910291 391.650643289633 0.365205400024798
462000 140.209215715002 -4.96274438842963 -916.025611443772 -1291.75100977977 375.725398336001 0.363143100226125
  462000    140.20922   -4.9627444    -1291.751    -1291.751            0     375.7254   -916.02561    0.3631431 
463000 139.47805809969 -64.8430712409329 -941.940890654567 -1315.70697066146 373.766080006898 0.36728837309574
464000 138.176300427439 -96.8619987900057 -889.543367767223 -1259.82106494957 370.27769718235 0.35251186274671
  464000     138.1763   -96.861999   -1259.8211   -1259.8211            0     370.2777   -889.54337   0.35251186 
465000 139.145005753347 18.5465248292552 -871.874797555884 -1244.74838112552 372.87358356964 0.35449550168585
466000 137.765288022158 -21.1007587482869 -917.800514075209 -1286.97680148996 369.176287414755 0.363046985872231
  466000    137.76529   -21.100759   -1286.9768   -1286.9768            0    369.17629   -917.80051   0.36304699 
467000 134.436231914383 -29.3802139261512 -931.300910041311 -1291.55616522721 360.255255185896 0.365164285210357
468000 139.448155492213 -51.2948285079218 -899.23643260325 -1272.92238115054 373.685948547291 0.358676445108054
  468000    139.44816   -51.294829   -1272.9224   -1272.9224            0    373.68595   -899.23643   0.35867645 
469000 138.578783236316 -107.162832140929 -911.087884454761 -1282.4441342338 371.356249779036 0.35923056994787
470000 143.635484109691 80.1393356957424 -912.371406732314 -1297.27834175145 384.906935019133 0.366965979399834
  470000    143.63548    80.139336   -1297.2783   -1297.2783            0    384.90694   -912.37141   0.36696598 
471000 129.522976001388 -78.3556490765513 -939.952638819765 -1287.04160514495 347.088966325189 0.360806469804239
472000 138.690836797409 148.751307282248 -934.819466375248 -1306.47599148684 371.656525111594 0.372998539122861
  472000    138.69084    148.75131    -1306.476    -1306.476            0    371.65653   -934.81947   0.37299854 
473000 140.046836477461 -7.82606695343861 -913.130368495602 -1288.42063135641 375.290262860807 0.362745300196941
474000 137.815299758878 14.9329389245405 -927.613476964826 -1296.92378324279 369.31030627796 0.365521183548617
  474000     137.8153    14.932939   -1296.9238   -1296.9238            0    369.31031   -927.61348   0.36552118 
475000 148.565235844448 -14.5852403004596 -898.93009612322 -1297.04752465231 398.117428529089 0.36297947758993
476000 139.460515476679 -66.8209798682585 -941.591636277301 -1315.31070647115 373.719070193847 0.368223894439776
  476000    139.46052    -66.82098   -1315.3107   -1315.3107            0    373.71907   -941.59164   0.36822389 
477000 146.061900359755 -45.7885924442617 -894.810675016617 -1286.21979469911 391.409119682497 0.361040300214917
478000 144.513588541027 16.2604107451952 -889.097407278578 -1276.35744109768 387.260033819106 0.360227433033804
  478000    144.51359    16.260411   -1276.3574   -1276.3574            0    387.26003   -889.09741   0.36022743 
479000 137.521887911567 102.47375428979 -888.935525998534 -1257.45956239655 368.524036398014 0.358081539196038
480000 133.685171005103 -12.9177669222952 -946.22676617885 -1304.46936721876 358.242601039913 0.367268756127931
  480000    133.68517   -12.917767   -1304.4694   -1304.4694            0     358.2426   -946.22677   0.36726876 
481000 145.779046752152 52.5016694942635 -893.482683282294 -1284.13382650907 390.651143226773 0.362464558784598
482000 145.022702684684 -60.3667785169771 -893.790768192953 -1282.41509973991 388.624331546959 0.359164095202724
  482000     145.0227   -60.366779   -1282.4151   -1282.4151            0    388.62433   -893.79077    0.3591641 
483000 142.532638260885 39.560457358817 -944.228866703451 -1326.18045250583 381.951585802374 0.373844606929321
484000 129.750954163921 5.9815289929936 -933.031114866376 -1280.73100527022 347.699890403845 0.362463122167372
  484000    129.75095     5.981529    -1280.731    -1280.731            0    347.69989   -933.03111   0.36246312 
485000 140.255994484151 -42.8292529063047 -915.650005672956 -1291.50075933302 375.85075366006 0.361815788391458
486000 136.109607761975 -44.3719378867072 -911.359508295727 -1276.09898945562 364.739481159891 0.358756311806453
  486000    136.10961   -44.371938    -1276.099    -1276.099            0    364.73948   -911.35951   0.35875631 
487000 146.658020291639 20.5225954263414 -880.960557611556 -1273.96712862934 393.006571017782 0.360940734364837
488000 142.012440547618 53.8942319351679 -929.134589686492 -1309.69217658491 380.557586898422 0.369527777844512
  488000    142.01244    53.894232   -1309.6922   -1309.6922            0    380.55759   -929.13459   0.36952778 
489000 138.065265256143 -110.48820620096 -933.41120000257 -1303.39135088062 369.980150878054 0.362695294373559
490000 147.951556053772 -29.7574904388743 -867.213824449189 -1263.68674564239 396.472921193201 0.353938457166221
  490000    147.95156    -29.75749   -1263.6867   -1263.6867            0    396.47292   -867.21382   0.35393846 
491000 136.220842647637 -4.73906807881336 -909.300390317385 -1274.33795296579 365.037562648406 0.361440677275354
492000 137.937542335242 57.2945399973202 -902.751985475385 -1272.38987108159 369.637885606204 0.36310877835221
  492000    137.93754     57.29454   -1272.3899   -1272.3899            0    369.63789   -902.75199   0.36310878 
493000 142.436044405562 91.9420044311066 -922.788725131559 -1304.48146372062 381.692738589065 0.369966705192304
494000 139.10681424944 22.2496838364823 -892.949206313011 -1265.72044626747 372.771239954455 0.356921175687992
  494000    139.10681    22.249684   -1265.7204   -1265.7204            0    372.77124   -892.94921   0.35692118 
495000 130.354823915451 -20.1572996250583 -955.610351489427 -1304.92846079407 349.318109304648 0.365071432058054
496000 142.258064063882 55.1085789224592 -891.098891591591 -1272.31468767418 381.215796082592 0.361144429642002
  496000    142.25806    55.108579   -1272.3147   -1272.3147            0     381.2158   -891.09889   0.36114443 
497000 142.787580267397 99.0820516185883 -908.832884221204 -1291.46765041554 382.634766194338 0.36569221657568
498000 142.459683724047 -77.0734935798827 -906.453501428971 -1288.20958744002 381.75608601105 0.359719270072767
  498000    142.45968   -77.073494   -1288.2096   -1288.2096            0    381.75609    -906.4535   0.35971927 
499000 143.034567913008 -7.60593426750939 -912.214383065979 -1295.5110139677 383.296630901718 0.364597224572374
500000 143.681747231101 38.5084591208641 -926.603073223287 -1311.63398176036 385.030908537076 0.369056816204306
  500000    143.68175    38.508459    -1311.634    -1311.634            0    385.03091   -926.60307   0.36905682 
501000 141.244047043068 93.9326992487625 -936.627869017943 -1315.1263547788 378.498485760855 0.374087262517994
502000 133.568598867751 -33.1193343574729 -917.166996290686 -1275.09721335129 357.930217060601 0.358831514394208
  502000     133.5686   -33.119334   -1275.0972   -1275.0972            0    357.93022     -917.167   0.35883151 
503000 138.156360735917 -9.68268422073926 -924.922875888185 -1295.14713971737 370.22426382919 0.3643677337359
504000 137.476861087672 133.012372478462 -898.796257014282 -1267.19963286044 368.403375846156 0.362145199516235
  504000    137.47686    133.01237   -1267.1996   -1267.1996            0    368.40338   -898.79626    0.3621452 
505000 137.281294588367 8.02488430647896 -901.792934761923 -1269.67224162675 367.879306864828 0.358888995790059
506000 140.91147761601 24.4777327389835 -910.830943509262 -1288.43822693496 377.607283425699 0.363256904566806
  506000    140.91148    24.477733   -1288.4382   -1288.4382            0    377.60728   -910.83094    0.3632569 
507000 134.910918460303 45.6203335343002 -919.866847988848 -1281.39414360833 361.52729561948 0.364793423211275
508000 146.300537239953 41.0198536248169 -907.486748728647 -1299.53535516965 392.048606441 0.36648713701561
  508000    146.30054    41.019854   -1299.5354   -1299.5354            0    392.04861   -907.48675   0.36648714 
509000 135.107671470036 -62.7964559226284 -922.8308217461 -1284.88536589613 362.054544150033 0.359841910382037
510000 139.996110579381 -16.9947482168336 -900.977898091332 -1276.13222831629 375.15433022496 0.358254308311218
  510000    139.99611   -16.994748   -1276.1322   -1276.1322            0    375.15433    -900.9779   0.35825431 
511000 138.234951683573 10.8706891105082 -879.201736610613 -1249.63660439307 370.434867782452 0.352500556439342
512000 145.765067206851 93.4156713421323 -901.969460809167 -1292.5831423741 390.613681564928 0.364213741413941
  512000    145.76507    93.415671   -1292.5831   -1292.5831            0    390.61368   -901.96946   0.36421374 
513000 144.568411746747 75.0250101964533 -922.463728740494 -1309.87067494836 387.406946207871 0.370841870811873
514000 140.228368136823 45.1929723040767 -896.222910631123 -1271.99963263569 375.776722004569 0.359827505103159
  514000    140.22837    45.192972   -1271.9996   -1271.9996            0    375.77672   -896.22291   0.35982751 
515000 131.30676968051 -85.6982218402831 -939.688354409474 -1291.55743869781 351.869084288334 0.361002225809372
516000 136.884043681992 33.550104936505 -907.217043648919 -1274.03181809855 366.814774449636 0.362425967778004
  516000    136.88404    33.550105   -1274.0318   -1274.0318            0    366.81477   -907.21704   0.36242597 
517000 141.051756960935 10.002666980748 -920.115678657466 -1298.09887541013 377.983196752663 0.365899505333225
518000 138.397237419539 25.9601519090281 -901.650273843245 -1272.52002654021 370.869752696965 0.360633449026795
  518000    138.39724    25.960152     -1272.52     -1272.52            0    370.86975   -901.65027   0.36063345 
519000 137.897789321047 -75.4322733544769 -918.169836440099 -1287.70119397668 369.531357536583 0.360235665485933
520000 142.093067612669 15.2222024818539 -927.555110170574 -1308.32875730426 380.773647133681 0.36803652767391
  520000    142.09307    15.222202   -1308.3288   -1308.3288            0    380.77365   -927.55511   0.36803653 
521000 137.046070583722 -54.5833677096413 -922.002654233198 -1289.25161998676 367.248965753561 0.358961990097655
522000 139.553069769634 8.04638694895861 -912.650834668661 -1286.61792706569 373.96709239703 0.364120223954961
  522000    139.55307    8.0463869   -1286.6179   -1286.6179            0    373.96709   -912.65083   0.36412022 
523000 135.332496550116 -52.029870885548 -945.32153652769 -1307.97855528924 362.65701876155 0.366040394937774
524000 142.448253281159 123.20679987932 -912.237714624378 -1293.96316992627 381.725455301897 0.368406138123682
  524000    142.44825     123.2068   -1293.9632   -1293.9632            0    381.72546   -912.23771   0.36840614 
525000 139.320154116406 -35.0225647655753 -918.031362634405 -1291.37429972081 373.342937086401 0.363249615036076
526000 137.227539311273 -13.3033960131277 -917.297009118231 -1285.03226537415 367.735256255914 0.362422492069822
  526000    137.22754   -13.303396   -1285.0323   -1285.0323            0    367.73526   -917.29701   0.36242249 
527000 142.041401247651 -105.409970419996 -878.863361863012 -1259.49855614623 380.635194283219 0.351101338318812
528000 137.737056630982 -12.2221371630351 -935.53271021064 -1304.63334460472 369.100634394083 0.367446644292978
  528000    137.73706   -12.222137   -1304.6333   -1304.6333            0    369.10063   -935.53271   0.36744664 
529000 138.380151977708 42.8327449588832 -915.810273353783 -1286.63424136816 370.823968014376 0.364902420748086
530000 142.132214527055 56.4251882649171 -886.065408364494 -1266.9439593729 380.87855100841 0.359169947558038
  530000    142.13221    56.425188    -1266.944    -1266.944            0    380.87855   -886.06541   0.35916995 
531000 140.212522125473 -98.7913292408673 -929.104504377656 -1304.83876306128 375.734258683624 0.363498317377716
532000 136.860634698081 -67.6058446734191 -923.836961888774 -1290.58900615509 366.752044266319 0.361331998830775
  532000    136.86063   -67.605845    -1290.589    -1290.589            0    366.75204   -923.83696     0.361332 
533000 135.676344978452 5.10414666979074 -919.160851099583 -1282.73929708006 363.578445980475 0.360882529164611
534000 136.641657654323 -18.2944522390157 -922.46781540618 -1288.63305632599 366.165240919813 0.362747282230903
  534000    136.64166   -18.294452   -1288.6331   -1288.6331            0    366.16524   -922.46782   0.36274728 
535000 135.704179242202 -95.0199554519161 -936.632255328079 -1300.28529012771 363.65303479963 0.363401335251632
536000 131.279298169071 -3.48215458220409 -962.772618097011 -1314.56808565105 351.795467554042 0.36866709093598
  536000     131.2793   -3.4821546   -1314.5681   -1314.5681            0    351.79547   -962.77262   0.36866709 
537000 138.308329096617 53.7674591867979 -924.214401629015 -1294.84590240456 370.631500775543 0.366187818602613
538000 138.145742508122 4.3368863736683 -940.46938309425 -1310.66519274625 370.195809651998 0.367554999271295
  538000    138.14574    4.3368864   -1310.6652   -1310.6652            0    370.19581   -940.46938     0.367555 
539000 139.261938779819 59.5851504341546 -933.021063521219 -1306.20799816215 373.186934640934 0.369811667984905
540000 134.614085687611 -45.7502587753456 -921.199103508433 -1281.93096202922 360.731858520783 0.361418811114472
  540000    134.61409   -45.750259    -1281.931    -1281.931            0    360.73186    -921.1991   0.36141881 
541000 144.025238922343 67.7533719120669 -888.64715920614 -1274.59853899654 385.951379790401 0.361927148530057
542000 136.796982651857 13.8034662144776 -908.869409864931 -1275.45088267273 366.5814728078 0.358845059531833
  542000    136.79698    13.803466   -1275.4509   -1275.4509            0    366.58147   -908.86941   0.35884506 
543000 138.268949725027 21.3513349187421 -899.562626309922 -1270.08860028395 370.525973974031 0.360214649204903
544000 148.689649337346 -14.3230038334856 -889.75281114706 -1288.20363651415 398.450825367087 0.360964859688013
  544000    148.68965   -14.323004   -1288.2036   -1288.2036            0    398.45083   -889.75281   0.36096486 
545000 131.652659529593 27.9963252994812 -951.100483320182 -1303.89646532108 352.795982000899 0.369009509404795
546000 138.474259553836 5.17457107601366 -904.671945280288 -1275.74809790569 371.076152625399 0.358831744549249
  546000    138.47426    5.1745711   -1275.7481   -1275.7481            0    371.07615   -904.67195   0.35883174 
547000 143.597335253103 -13.3769491903723 -904.284313251393 -1289.08901893942 384.804705688025 0.363235363178219
548000 140.57397692622 -34.0576668125271 -918.681873779679 -1295.38474032762 376.70286654794 0.364132119695864
  548000    140.57398   -34.057667   -1295.3847   -1295.3847            0    376.70287   -918.68187   0.36413212 
549000 136.653707265127 -8.74199858773187 -897.495620077369 -1263.69315092047 366.197530843098 0.356227914615154
550000 136.890095406996 68.1592916495547 -917.987010412033 -1284.81800196107 366.830991549035 0.365258686519956
  550000     136.8901    68.159292    -1284.818    -1284.818            0    366.83099   -917.98701   0.36525869 
551000 144.842968784704 140.867946760094 -899.852011872084 -1287.99470181781 388.142689945729 0.367740530693085
552000 139.773273907689 76.4149784984595 -947.801135435838 -1322.35831948315 374.557184047313 0.372682533347151
  552000    139.77327    76.414978   -1322.3583   -1322.3583            0    374.55718   -947.80114   0.37268253 
553000 135.943257572071 11.9347736474789 -929.779551497998 -1294.07325603011 364.29370453211 0.365633281464678
554000 137.806369572921 10.6857509260469 -889.347914895147 -1258.63429052305 369.286375627902 0.354307397725854
  554000    137.80637    10.685751   -1258.6343   -1258.6343            0    369.28638   -889.34791    0.3543074 
555000 145.818084307292 67.1985446690449 -888.887828553333 -1279.64358259959 390.755754046257 0.363294065442987
556000 136.679059533217 -23.4180964596885 -927.558715131971 -1293.82418367073 366.265468538764 0.363525907896051
  556000    136.67906   -23.418096   -1293.8242   -1293.8242            0    366.26547   -927.55872   0.36352591 
557000 143.061042113481 -14.2440622831386 -896.342192566962 -1279.70976766067 383.367575093709 0.360438041767265
558000 135.517557853766 76.524442802867 -965.373759007331 -1328.5266954707 363.152936463365 0.374898789702437
  558000    135.51756    76.524443   -1328.5267   -1328.5267            0    363.15294   -965.37376   0.37489879 
559000 143.107074349861 -30.5587750718789 -920.644443651459 -1304.13537354936 383.490929897898 0.366667147457012
560000 139.120946908043 -10.0135868860416 -908.227968927513 -1281.03708084891 372.809111921401 0.360221533310275
  560000    139.12095   -10.013587   -1281.0371   -1281.0371            0    372.80911   -908.22797   0.36022153 
561000 135.924668943241 3.27143066912474 -935.749707224311 -1299.99359891112 364.243891686813 0.366582879350713
562000 135.676113051775 52.4108863568346 -908.525134096925 -1272.1029585723 363.577824475371 0.360592083007453
  562000    135.67611    52.410886    -1272.103    -1272.103            0    363.57782   -908.52513   0.36059208 
563000 142.959017156797 -48.4954253476682 -899.478253941656 -1282.57242783777 383.094173896112 0.359631039299162
564000 144.14620671644 -16.2116749539585 -893.079911756662 -1279.35545477978 386.275543023118 0.36003385157599
  564000    144.14621   -16.211675   -1279.3555   -1279.3555            0    386.27554   -893.07991   0.36003385 
565000 137.840495643636 92.6582078058888 -947.496817014977 -1316.87464192064 369.377824905668 0.37340396450595
566000 137.716790949054 -64.8457658445609 -906.694484449891 -1275.7408119186 369.046327468705 0.357912819475189
  566000    137.71679   -64.845766   -1275.7408   -1275.7408            0    369.04633   -906.69448   0.35791282 
567000 134.727878491952 -48.7153515584489 -917.918033778097 -1278.95482836546 361.036794587367 0.358445593351229
568000 142.407626980181 -2.57846839111299 -876.445861733558 -1258.06244877712 381.616587043559 0.35450785986144
  568000    142.40763   -2.5784684   -1258.0624   -1258.0624            0    381.61659   -876.44586   0.35450786 
569000 138.672114425254 46.8116104731176 -948.021146655345 -1319.62750052321 371.60635386786 0.371215642410475
570000 136.685969848167 -64.6709106860531 -911.582149117958 -1277.86613556101 366.283986443055 0.359233579242628
  570000    136.68597   -64.670911   -1277.8661   -1277.8661            0    366.28399   -911.58215   0.35923358 
571000 140.450012536194 1.61768832559843 -893.16814687209 -1269.53882006466 376.370673192572 0.359096061796677
572000 140.582502786954 66.816810770524 -908.470393745408 -1285.1961074536 376.725713708195 0.364465963860646
  572000     140.5825    66.816811   -1285.1961   -1285.1961            0    376.72571   -908.47039   0.36446596 
573000 142.263324925925 33.9461784126358 -912.883413501804 -1294.11330737017 381.229893868365 0.365181703988855
574000 137.406829852792 -11.2529144877442 -917.061301409625 -1285.27701117772 368.215709768095 0.361448929466849
  574000    137.40683   -11.252914    -1285.277    -1285.277            0    368.21571    -917.0613   0.36144893 
575000 141.118073575807 -25.2033114336087 -921.012670031309 -1299.17357861562 378.160908584312 0.363640636713876
576000 147.398136200026 -105.61483419642 -894.34665763084 -1289.33655294778 394.989895316938 0.359362131703152
  576000    147.39814   -105.61483   -1289.3366   -1289.3366            0     394.9899   -894.34666   0.35936213 
577000 140.425574102443 99.9202856230173 -923.886178982051 -1300.19136332491 376.305184342863 0.369158976225906
578000 140.663446865866 54.4790982225908 -914.585714526594 -1291.52833798738 376.942623460788 0.364200538775306
  578000    140.66345    54.479098   -1291.5283   -1291.5283            0    376.94262   -914.58571   0.36420054 
579000 138.4644797212 -0.27400966386109 -914.544109518725 -1285.59405465488 371.049945136156 0.361193763284262
580000 144.347017844607 70.5279532637309 -898.345338416925 -1285.15900470631 386.813666289383 0.362712107564033
  580000    144.34702    70.527953    -1285.159    -1285.159            0    386.81367   -898.34534   0.36271211 
581000 136.086974844294 14.1977041009346 -946.837210817152 -1311.51604145583 364.678830638681 0.369387321760933
582000 142.553457222439 137.761489658446 -914.407509029051 -1296.4148844069 382.007375377852 0.368388214483277
  582000    142.55346    137.76149   -1296.4149   -1296.4149            0    382.00738   -914.40751   0.36838821 
583000 137.90143098583 43.4047003829294 -936.434716692582 -1305.97583297394 369.541116281358 0.36882238804047
584000 137.046427882344 95.5893865398018 -950.290899150338 -1317.54082237425 367.249923223915 0.372996975885471
  584000    137.04643    95.589387   -1317.5408   -1317.5408            0    367.24992    -950.2909   0.37299698 
585000 137.098561376907 32.6495632640306 -936.261317868852 -1303.6509457328 367.389627863951 0.36886305079868
586000 146.136741429197 61.5393632872325 -826.719618362814 -1218.32929326905 391.609674906235 0.346994420917282
  586000    146.13674    61.539363   -1218.3293   -1218.3293            0    391.60967   -826.71962   0.34699442 
587000 139.935684937008 34.4944635659479 -910.876018657784 -1285.86842337425 374.992404716467 0.362814837918688
588000 135.529477160894 44.709396172268 -954.131918019372 -1317.31679522497 363.184877205601 0.372462332900363
  588000    135.52948    44.709396   -1317.3168   -1317.3168            0    363.18488   -954.13192   0.37246233 
589000 139.042769981196 -9.92836492754759 -890.793242534093 -1263.39285997376 372.59961743967 0.355102895144813
590000 142.111539485117 -9.91065690489389 -850.294524271377 -1231.11767137265 380.82314710127 0.346844465967089
  590000    142.11154   -9.9106569   -1231.1177   -1231.1177            0    380.82315   -850.29452   0.34684447 
591000 145.845046179067 35.9493864635623 -885.439444802531 -1276.26744987709 390.828005074556 0.360835812609446
592000 143.904806008332 92.2037095322122 -902.458357078262 -1288.08700697991 385.628649901649 0.365158331795897
  592000    143.90481     92.20371    -1288.087    -1288.087            0    385.62865   -902.45836   0.36515833 
593000 142.429271031838 0.903994367595476 -904.516733871442 -1286.19132152422 381.674587652782 0.362801551980166
594000 144.78329025384 -93.4421069581585 -929.295327780524 -1317.27809428851 387.982766507982 0.365397504219834
  594000    144.78329   -93.442107   -1317.2781   -1317.2781            0    387.98277   -929.29533    0.3653975 
595000 136.444767391791 71.3972561755447 -904.371148364145 -1270.00877295046 365.637624586314 0.360756022929731
596000 135.051087021921 7.61594360165137 -896.030003050232 -1257.9329151253 361.902912075073 0.356252454492436
  596000    135.05109    7.6159436   -1257.9329   -1257.9329            0    361.90291      -896.03   0.35625245 
597000 138.10346161916 -23.3653584134551 -905.511647671521 -1275.59415518595 370.08250751443 0.356941138089055
598000 138.499523135965 6.16094911730795 -940.202164626434 -1311.34601729145 371.143852665018 0.368864007527472
  598000    138.49952    6.1609491    -1311.346    -1311.346            0    371.14385   -940.20216   0.36886401 
599000 137.831627661878 11.2739141560046 -920.85493051602 -1290.20899146322 369.354060947203 0.36253865783586
600000 136.112579835482 94.8323697553492 -917.210080149611 -1281.95752571823 364.747445568622 0.364080690170368
  600000    136.11258     94.83237   -1281.9575   -1281.9575            0    364.74745   -917.21008   0.36408069 
601000 146.509453352453 32.4622950997436 -906.031847225937 -1298.64029625066 392.608449024724 0.368031259483163
602000 142.835037787677 47.3895425654945 -885.100056858877 -1267.86199725942 382.761940400545 0.35815719589569
  602000    142.83504    47.389543    -1267.862    -1267.862            0    382.76194   -885.10006    0.3581572 
603000 139.010757879919 110.789311149888 -887.517865629621 -1260.0316986974 372.513833067775 0.360378815167724
604000 139.718774239756 -83.1736097714066 -922.990501313565 -1297.40163997193 374.411138658365 0.361541668004069
  604000    139.71877    -83.17361   -1297.4016   -1297.4016            0    374.41114    -922.9905   0.36154167 
605000 145.261390211351 35.1795199453419 -916.697568306473 -1305.96152233172 389.263954025252 0.368128824857304
606000 138.321878098724 -80.1867177330575 -931.034305476158 -1301.70211416618 370.667808690023 0.363192309764789
  606000    138.32188   -80.186718   -1301.7021   -1301.7021            0    370.66781   -931.03431   0.36319231 
607000 141.55436519471 4.72659546805859 -858.635281693811 -1237.9653419738 379.330060279992 0.349778862283267
608000 144.203991752894 56.0195858893548 -865.155923712356 -1251.58631608492 386.430392372563 0.354891739433176
  608000    144.20399    56.019586   -1251.5863   -1251.5863            0    386.43039   -865.15592   0.35489174 
609000 147.178613788095 122.303289787047 -901.160012793584 -1295.56164331462 394.401630521036 0.368262998922605
610000 143.02650252415 70.6222940889883 -912.869707811716 -1296.14472550188 383.275017690164 0.366956781977621
  610000     143.0265    70.622294   -1296.1447   -1296.1447            0    383.27502   -912.86971   0.36695678 
611000 136.619432682357 -3.16733884196523 -944.408102152857 -1310.51378574327 366.105683590416 0.368204557679135
612000 141.348958059037 145.342698078716 -919.551801699669 -1298.33142257039 378.779620870725 0.371004774536352
  612000    141.34896     145.3427   -1298.3314   -1298.3314            0    378.77962    -919.5518   0.37100477 
613000 145.423950084794 -1.05637531207207 -884.924246254965 -1274.62381981415 389.699573559184 0.357907033538983
614000 139.156166090494 -9.60465158500263 -889.24723699029 -1262.1507274537 372.903490463411 0.356315306721295
  614000    139.15617   -9.6046516   -1262.1507   -1262.1507            0    372.90349   -889.24724   0.35631531 
615000 139.742024028832 -45.4419853341948 -906.195486331284 -1280.66892857089 374.473442239604 0.359074114149785
616000 140.595315875433 10.1886152328889 -918.124877173391 -1294.88492673282 376.760049559428 0.364031693794771
  616000    140.59532    10.188615   -1294.8849   -1294.8849            0    376.76005   -918.12488   0.36403169 
617000 140.357483215069 20.7296906787346 -930.61394051414 -1306.73665842174 376.122717907605 0.367503716168764
618000 139.427910336133 15.8973662072259 -912.734633249485 -1286.3663298755 373.631696626018 0.364667579861516
  618000    139.42791    15.897366   -1286.3663   -1286.3663            0     373.6317   -912.73463   0.36466758 
619000 137.949968755346 2.26040066146611 -929.840354409328 -1299.51153969287 369.671185283545 0.366591931019752
620000 136.61282829114 -33.8546091164238 -870.603550792343 -1236.69153627705 366.08798548471 0.349270974516458
  620000    136.61283   -33.854609   -1236.6915   -1236.6915            0    366.08799   -870.60355   0.34927097 
621000 138.657771345535 48.5803424917241 -878.903275433669 -1250.47119345897 371.567918025299 0.356065375054282
622000 138.604033460276 33.0929088394493 -930.528692165711 -1301.95260618784 371.423914022126 0.36751167921677
  622000    138.60403    33.092909   -1301.9526   -1301.9526            0    371.42391   -930.52869   0.36751168 
623000 136.158592414569 38.9354704470066 -939.643751381838 -1304.51449907806 364.870747696217 0.368410238253439
624000 133.396095076229 -13.532810727731 -925.591517073468 -1283.05946740321 357.467950329747 0.362332093078548
  624000     133.3961   -13.532811   -1283.0595   -1283.0595            0    357.46795   -925.59152   0.36233209 
625000 134.591090130193 -18.4698931401861 -899.06429390011 -1259.73453011649 360.670236216381 0.354902026895199
626000 129.965784321751 52.6210282186758 -944.937105985935 -1293.21268712604 348.275581140106 0.366584217727773
  626000    129.96578    52.621028   -1293.2127   -1293.2127            0    348.27558   -944.93711   0.36658422 
627000 143.766544256065 -8.0142659573123 -879.80852076257 -1265.06666397762 385.258143215051 0.355719456275404
628000 134.586556238173 57.3079985920164 -929.991982995968 -1290.65006952321 360.658086527244 0.364508102306245
  628000    134.58656    57.307999   -1290.6501   -1290.6501            0    360.65809   -929.99198    0.3645081 
629000 136.099852079104 -40.1890747441915 -908.638226129418 -1273.35156451535 364.713338385935 0.355678048648754
630000 134.648887381018 37.9017658346041 -925.323658400193 -1286.14877669746 360.825118297264 0.364472792776672
  630000    134.64889    37.901766   -1286.1488   -1286.1488            0    360.82512   -925.32366   0.36447279 
631000 139.785600688209 -38.5926202821731 -920.802363890768 -1295.39258060642 374.590216715652 0.361991708636528
632000 137.666636527689 -40.6922636991448 -905.951165847573 -1274.86309209415 368.911926246578 0.358058189357188
  632000    137.66664   -40.692264   -1274.8631   -1274.8631            0    368.91193   -905.95117   0.35805819 
633000 140.370593135558 79.6537972218413 -897.541443724168 -1273.69929291806 376.157849193897 0.362446398505943
634000 141.926375766445 -30.4049702775282 -901.919779606805 -1282.24673455979 380.326954952981 0.361380100340201
  634000    141.92638    -30.40497   -1282.2467   -1282.2467            0    380.32695   -901.91978    0.3613801 
635000 139.686523946202 -131.377819744161 -909.504797818775 -1283.82951380991 374.324715991134 0.357279164629313
636000 141.383721401044 -61.9762714987831 -923.090880610757 -1301.96365848587 378.87277787511 0.364361971444222
  636000    141.38372   -61.976271   -1301.9637   -1301.9637            0    378.87278   -923.09088   0.36436197 
637000 140.450025494106 -59.1123226005934 -919.042209282658 -1295.41291719917 376.370707916513 0.362231734550715
638000 138.405673355791 34.9523779858319 -941.795859890108 -1312.68821877235 370.892358882246 0.368544281973316
  638000    138.40567    34.952378   -1312.6882   -1312.6882            0    370.89236   -941.79586   0.36854428 
639000 142.237505011392 -71.0347269367846 -905.525320417966 -1286.68602341594 381.160702997971 0.35946902165601
640000 144.047386379433 66.5743169123344 -894.907019803833 -1280.91774920328 386.010729399445 0.362459778580922
  640000    144.04739    66.574317   -1280.9177   -1280.9177            0    386.01073   -894.90702   0.36245978 
641000 136.513003375247 -24.5865846501653 -925.233356076955 -1291.0538359195 365.82047984254 0.364244862646335
642000 137.882782398472 18.9310273981453 -916.015824886869 -1285.50696764917 369.491142762301 0.362912562846935
  642000    137.88278    18.931027    -1285.507    -1285.507            0    369.49114   -916.01582   0.36291256 
643000 142.848282618991 32.4311624196398 -884.416743787707 -1267.21417700159 382.797433213881 0.360290614529193
644000 134.568132282894 57.9962928898915 -921.639654805686 -1282.24836977129 360.608714965603 0.363879521177447
  644000    134.56813    57.996293   -1282.2484   -1282.2484            0    360.60871   -921.63965   0.36387952 
645000 134.860249566327 50.0344063572511 -959.922515068306 -1321.31403080859 361.391515740281 0.372861331921285
646000 143.74277579409 99.6435832762119 -914.926107018323 -1300.12055673935 385.194449721027 0.368912550156649
  646000    143.74278    99.643583   -1300.1206   -1300.1206            0    385.19445   -914.92611   0.36891255 
647000 137.350883719843 -6.45433514225091 -921.844854369283 -1289.91064258635 368.065788217071 0.363891802961708
648000 140.769236186187 70.9187527068802 -876.938315120113 -1254.16442732531 377.226112205194 0.358351136031887
  648000    140.76924    70.918753   -1254.1644   -1254.1644            0    377.22611   -876.93832   0.35835114 
649000 133.624648037447 111.668665261799 -934.728892806436 -1292.8093075306 358.080414724164 0.369011175794206
650000 136.213605876676 53.6733051975535 -910.142471434759 -1275.16064135896 365.018169924198 0.361703506432519
  650000    136.21361    53.673305   -1275.1606   -1275.1606            0    365.01817   -910.14247   0.36170351 
651000 144.267054278121 39.8449397542002 -875.470722124681 -1262.07010618791 386.59938406323 0.359016329324448
652000 142.70991385967 -4.58000654635513 -916.782158733398 -1299.20879850871 382.426639775317 0.364629267127546
  652000    142.70991   -4.5800065   -1299.2088   -1299.2088            0    382.42664   -916.78216   0.36462927 
653000 140.843935036679 -66.0014153639126 -886.400418774161 -1263.82670509212 377.426286317954 0.353949465183782
654000 135.790582962234 39.6581167357262 -899.464076964741 -1263.34865198062 363.884575015878 0.357917085300973
  654000    135.79058    39.658117   -1263.3487   -1263.3487            0    363.88458   -899.46408   0.35791709 
655000 138.621679004472 -12.8080323154992 -900.024972553342 -1271.49617219138 371.471199638039 0.358693516668337
[...]
3091000 141.937471544916 -25.9262405338642 -893.200030804515 -1273.55671965027 380.356688845756 0.358780604465269
3092000 142.668971873244 -2.91033313539103 -924.968942650876 -1307.28586821033 382.316925559456 0.366320076405
 3092000    142.66897   -2.9103331   -1307.2859   -1307.2859            0    382.31693   -924.96894   0.36632008 
3093000 140.600399550872 2.99896037210377 -965.576758204452 -1342.35043073417 376.773672529713 0.375226110694181
3094000 142.916622412732 -27.7812599644789 -917.464993243813 -1300.44555989935 382.980566655533 0.36341639082738
 3094000    142.91662    -27.78126   -1300.4456   -1300.4456            0    382.98057   -917.46499   0.36341639 
3095000 138.249807224413 14.6268734495256 -952.260628258775 -1322.73530515057 370.474676891799 0.372359266656856
3096000 140.128490786886 -132.586343596875 -920.643695794819 -1296.15277164719 375.509075852366 0.361037008577694
 3096000    140.12849   -132.58634   -1296.1528   -1296.1528            0    375.50908    -920.6437   0.36103701 
3097000 144.227663876917 -62.7730254010538 -922.232914535567 -1308.7267422407 386.49382770513 0.364828518939341
3098000 137.922604111297 6.12831461083358 -928.427074956935 -1298.02492988389 369.597854926956 0.366216540147883
 3098000     137.9226    6.1283146   -1298.0249   -1298.0249            0    369.59785   -928.42707   0.36621654 
3099000 147.407600114658 42.5950610503661 -916.093127701014 -1311.10838392648 395.015256225469 0.36932714414728
3100000 142.685666095321 35.2351093088114 -884.791427100404 -1267.15308897201 382.361661871602 0.359349270926883
 3100000    142.68567    35.235109   -1267.1531   -1267.1531            0    382.36166   -884.79143   0.35934927 
3101000 141.003014696859 54.729884262158 -872.713409728131 -1250.56598948467 377.852579756537 0.356707891889873
3102000 144.247728683384 86.6734608194689 -840.327327162565 -1226.87492349741 386.547596334844 0.350536119108908
 3102000    144.24773    86.673461   -1226.8749   -1226.8749            0     386.5476   -840.32733   0.35053612 
3103000 137.913643961885 9.64403692878308 -945.087461006637 -1314.66130498902 369.573843982385 0.368745853623198
3104000 137.90882452276 -12.004429177147 -946.019242973899 -1315.58017207279 369.560929098894 0.368517334081678
 3104000    137.90882   -12.004429   -1315.5802   -1315.5802            0    369.56093   -946.01924   0.36851733 
3105000 144.189969127205 -5.95213011266392 -927.963355815419 -1314.35617108154 386.392815266124 0.369259129790883
3106000 139.456905929731 24.0130824696846 -912.123258654431 -1285.83265617121 373.709397516784 0.362687211744902
 3106000    139.45691    24.013082   -1285.8327   -1285.8327            0     373.7094   -912.12326   0.36268721 
3107000 142.360375859133 64.6295526405548 -913.152373094162 -1294.64233902949 381.489965935329 0.366106765329008
3108000 147.031900089641 101.159059823269 -903.369752910559 -1297.37822765712 394.008474746561 0.368542959769924
 3108000     147.0319    101.15906   -1297.3782   -1297.3782            0    394.00847   -903.36975   0.36854296 
3109000 138.518201390864 38.1932454588496 -970.379400893285 -1341.5733065789 371.193905685617 0.376273444214742
3110000 140.519097504984 -8.64389277730048 -909.145755348243 -1285.70155886399 376.555803515748 0.363410483781018
 3110000     140.5191   -8.6438928   -1285.7016   -1285.7016            0     376.5558   -909.14576   0.36341048 
3111000 136.255367968473 -24.280791677909 -942.573730319182 -1307.70381213516 365.130081815978 0.367402692882265
3112000 140.905685218532 91.1743512185874 -893.049234063052 -1270.64099532183 377.591761258781 0.362034637617895
 3112000    140.90569    91.174351    -1270.641    -1270.641            0    377.59176   -893.04923   0.36203464 
3113000 138.620930504226 55.6072475052669 -906.805225078395 -1278.27441892422 371.469193845827 0.360932934363825
3114000 135.768081084647 -52.7119391473078 -918.968025145628 -1282.79230079476 363.824275649132 0.359831562635146
 3114000    135.76808   -52.711939   -1282.7923   -1282.7923            0    363.82428   -918.96803   0.35983156 
3115000 142.903921681065 19.4447704041075 -896.144293475428 -1279.09082536769 382.946531892266 0.361422320903692
3116000 143.176806210891 -46.6046792639607 -880.883662419492 -1264.56145614891 383.677793729413 0.355526085585428
 3116000    143.17681   -46.604679   -1264.5615   -1264.5615            0    383.67779   -880.88366   0.35552609 
3117000 137.217031784305 34.0603497022527 -926.125710957265 -1293.83280968633 367.707098729068 0.366348003915832
3118000 135.831255112791 -26.6889866428498 -939.301030383858 -1303.2945965234 363.993566139544 0.366516534102307
 3118000    135.83126   -26.688987   -1303.2946   -1303.2946            0    363.99357   -939.30103   0.36651653 
3119000 140.377341220972 97.2679392638445 -911.704332344091 -1287.88026470797 376.175932363874 0.366837115858229
3120000 142.806376539227 39.2139082269171 -905.647116264975 -1288.33225173557 382.685135470599 0.364974101689211
 3120000    142.80638    39.213908   -1288.3323   -1288.3323            0    382.68514   -905.64712    0.3649741 
3121000 143.836622326609 -38.0608060148186 -936.490529207361 -1321.93646400826 385.4459348009 0.369607863978242
3122000 148.749964010329 68.0689219114505 -876.629173088024 -1275.24162659358 398.612453505555 0.362463760211424
 3122000    148.74996    68.068922   -1275.2416   -1275.2416            0    398.61245   -876.62917   0.36246376 
3123000 145.14026832544 86.1400249271239 -888.011772837607 -1276.95115070288 388.939377865268 0.363504618189398
3124000 142.824531183498 74.9069439503974 -913.66604906135 -1296.39983440789 382.733785346539 0.366655258351963
 3124000    142.82453    74.906944   -1296.3998   -1296.3998            0    382.73379   -913.66605   0.36665526 
3125000 148.262823277726 38.7464223021628 -893.000983954243 -1290.30802294143 397.307038987189 0.362903996943153
3126000 141.165267242767 -43.844588404314 -889.627396274591 -1267.91477200464 378.28737573005 0.35712915106003
 3126000    141.16527   -43.844588   -1267.9148   -1267.9148            0    378.28738    -889.6274   0.35712915 
3127000 138.193042817753 -27.8956862180598 -913.007258320226 -1283.32982089347 370.322562573243 0.361255429194023
3128000 138.050236163844 -13.2720978275128 -904.419977981014 -1274.35985467551 369.939876694492 0.360448115844049
 3128000    138.05024   -13.272098   -1274.3599   -1274.3599            0    369.93988   -904.41998   0.36044812 
3129000 147.484401027592 64.9610166270169 -897.824702594151 -1293.0457659305 395.221063336348 0.366939659475067
3130000 138.09735151375 68.345660703571 -911.177925236421 -1281.24405920666 370.066133970241 0.364392545404817
 3130000    138.09735    68.345661   -1281.2441   -1281.2441            0    370.06613   -911.17793   0.36439255 
3131000 144.013190190935 87.2732189856167 -895.763536734254 -1281.68262895793 385.919092223677 0.363648914877817
3132000 136.334547451882 -34.1445681301089 -946.903124027315 -1312.2453869242 365.342262896888 0.368557876560544
 3132000    136.33455   -34.144568   -1312.2454   -1312.2454            0    365.34226   -946.90312   0.36855788 
3133000 142.504815256562 -33.638281773577 -888.727052268482 -1270.60407942413 381.877027155647 0.35758210974892
3134000 143.046800309082 -30.9808789520027 -905.614413118938 -1288.94382376245 383.329410643509 0.362477454369723
 3134000     143.0468   -30.980879   -1288.9438   -1288.9438            0    383.32941   -905.61441   0.36247745 
3135000 141.720597399167 -29.9975727164975 -931.037787975077 -1310.81330871155 379.775520736476 0.367757407843086
3136000 144.693105743485 17.5038271706453 -864.478611791183 -1252.21970651672 387.741094725539 0.355006828221348
 3136000    144.69311    17.503827   -1252.2197   -1252.2197            0    387.74109   -864.47861   0.35500683 
3137000 137.078973318981 75.7131600458995 -936.794233071809 -1304.13136987211 367.337136800297 0.368572172816326
3138000 134.667702038193 19.7418488751688 -918.477823567542 -1279.35336040916 360.875536841621 0.362561260530464
 3138000     134.6677    19.741849   -1279.3534   -1279.3534            0    360.87554   -918.47782   0.36256126 
3139000 138.466163547008 8.77399703961128 -923.914654689716 -1294.96911205511 371.054457365393 0.363982998777874
3140000 143.408845316593 -38.9378857133884 -904.496430976235 -1288.79603108959 384.299600113359 0.361854449345141
 3140000    143.40885   -38.937886    -1288.796    -1288.796            0     384.2996   -904.49643   0.36185445 
3141000 135.027443798065 -113.045516722713 -912.07018922845 -1273.90974341613 361.839554187675 0.355327994153419
3142000 133.288764051776 -49.1716508674174 -933.686786841314 -1290.86711704773 357.180330206414 0.362710456092072
 3142000    133.28876   -49.171651   -1290.8671   -1290.8671            0    357.18033   -933.68679   0.36271046 
3143000 140.122833384346 56.1960965863861 -905.010160040154 -1280.50407547805 375.493915437895 0.362006776464727
3144000 143.272145557232 16.5930999626369 -903.515156791258 -1287.44843596575 383.933279174491 0.360572401457495
 3144000    143.27215      16.5931   -1287.4484   -1287.4484            0    383.93328   -903.51516    0.3605724 
3145000 133.354475809148 -4.33393281698563 -947.055345725253 -1304.4117668975 357.356421172247 0.366600497894955
3146000 140.458546595766 20.9906266608331 -917.058864198424 -1293.45240652207 376.393542323645 0.364664548940682
 3146000    140.45855    20.990627   -1293.4524   -1293.4524            0    376.39354   -917.05886   0.36466455 
3147000 145.301559160552 -65.4028838939718 -864.347915062087 -1253.71951175806 389.371596695971 0.351705354980202
3148000 141.606144046258 43.6655636708427 -926.560423461082 -1306.02923802712 379.468814566034 0.370031183493398
 3148000    141.60614    43.665564   -1306.0292   -1306.0292            0    379.46881   -926.56042   0.37003118 
3149000 139.8918800385 38.3754279476264 -925.832362485982 -1300.70738110299 374.875018617009 0.367024982937972
3150000 138.962254602086 92.9529703864602 -873.079618444808 -1245.46347493942 372.383856494613 0.354682919549819
 3150000    138.96225     92.95297   -1245.4635   -1245.4635            0    372.38386   -873.07962   0.35468292 
3151000 136.167756849856 26.0206621338553 -940.497412887633 -1305.39271896314 364.895306075503 0.365327903763493
3152000 137.754140678966 87.9781666153817 -895.622666843662 -1264.76908218518 369.146415341514 0.3597569475582
 3152000    137.75414    87.978167   -1264.7691   -1264.7691            0    369.14642   -895.62267   0.35975695 
3153000 143.7514533406 63.1271213960294 -886.079140508146 -1271.29684386912 385.21770336097 0.361752856435413
3154000 137.532426035397 -11.523463642805 -939.959116553401 -1308.51139247015 368.552275916747 0.367457058836876
 3154000    137.53243   -11.523464   -1308.5114   -1308.5114            0    368.55228   -939.95912   0.36745706 
3155000 138.493846495606 0.751311960473328 -927.42170945776 -1298.5503501558 371.128640698036 0.365100776844506
3156000 135.785430086731 -47.0430245285351 -922.204680754455 -1286.0754473613 363.870766606844 0.360122220707695
 3156000    135.78543   -47.043025   -1286.0754   -1286.0754            0    363.87077   -922.20468   0.36012222 
3157000 139.609313089291 21.8607565151028 -931.53975512588 -1305.65756545949 374.11781033361 0.367787622106795
3158000 140.727052681817 45.9642666422375 -916.384848759398 -1293.49791979321 377.113071033816 0.364167169973238
 3158000    140.72705    45.964267   -1293.4979   -1293.4979            0    377.11307   -916.38485   0.36416717 
3159000 145.930023915741 37.3400571634262 -910.01783654879 -1301.07356056321 391.055724014418 0.367913640888482
3160000 138.45633745877 124.255435932866 -911.55898295488 -1282.58710887766 371.02812592278 0.365386516277422
 3160000    138.45634    124.25544   -1282.5871   -1282.5871            0    371.02813   -911.55898   0.36538652 
3161000 142.944019543912 13.3134277111136 -892.486216881233 -1275.54020095069 383.053984069457 0.360277191340891
3162000 137.821257795222 -90.8221186459483 -919.539298187553 -1288.86557050289 369.326272315336 0.357671979862812
 3162000    137.82126   -90.822119   -1288.8656   -1288.8656            0    369.32627    -919.5393   0.35767198 
3163000 140.96771580528 -32.3416800773247 -933.096433276303 -1310.85442089044 377.757987614133 0.367422071002348
3164000 139.860094344081 12.7016676773277 -911.346563511165 -1286.13640446966 374.78984095849 0.364145357435936
 3164000    139.86009    12.701668   -1286.1364   -1286.1364            0    374.78984   -911.34656   0.36414536 
3165000 140.757161662976 10.3350081901898 -869.249896015229 -1246.44365153816 377.193755522933 0.353361388009727
3166000 147.446710843343 -25.7921743836383 -893.118516781203 -1288.23857991284 395.120063131633 0.361189879608652
 3166000    147.44671   -25.792174   -1288.2386   -1288.2386            0    395.12006   -893.11852   0.36118988 
3167000 141.611261793125 -12.2231526438053 -909.795208628728 -1289.2777374679 379.48252883917 0.361187260203265
3168000 138.254863889308 35.5917308709753 -970.445861120687 -1340.93408860131 370.488227480625 0.377344231258082
 3168000    138.25486    35.591731   -1340.9341   -1340.9341            0    370.48823   -970.44586   0.37734423 
3169000 142.111724217068 68.137075823459 -918.194005388463 -1299.01764752485 380.823642136388 0.365166547123334
3170000 138.074007141255 39.4416132509776 -910.601502278544 -1280.6050792078 370.003576929252 0.362620321312492
 3170000    138.07401    39.441613   -1280.6051   -1280.6051            0    370.00358    -910.6015   0.36262032 
3171000 142.206307752025 55.7707246658817 -924.619227036835 -1305.69632923408 381.077102197245 0.368488064470483
3172000 139.066842091865 31.4887555384061 -933.507322689726 -1306.17144732547 372.664124635747 0.36901895127893
 3172000    139.06684    31.488756   -1306.1714   -1306.1714            0    372.66412   -933.50732   0.36901895 
3173000 135.139504155356 103.414693073112 -943.392560840613 -1305.53240857295 362.139847732333 0.370704674144222
3174000 142.737208514298 61.1690094078362 -883.180888816752 -1265.68067139463 382.499782577881 0.358868296587156
 3174000    142.73721    61.169009   -1265.6807   -1265.6807            0    382.49978   -883.18089    0.3588683 
3175000 137.911863864681 -94.1406095309316 -909.205238615577 -1278.77431238562 369.569073770045 0.358625791628027
3176000 136.091273122399 -9.79437709070642 -883.713042592334 -1248.40339153418 364.690348941847 0.351346243054794
 3176000    136.09127   -9.7943771   -1248.4034   -1248.4034            0    364.69035   -883.71304   0.35134624 
3177000 134.463006743939 -37.8551018208432 -917.855672903213 -1278.18267789135 360.327004988141 0.360224047920836
3178000 137.916464490175 40.1593832692065 -922.215008614498 -1291.79641090259 369.581402288091 0.364855613249462
 3178000    137.91646    40.159383   -1291.7964   -1291.7964            0     369.5814   -922.21501   0.36485561 
3179000 144.931110801097 28.7025188292439 -919.727245314102 -1308.10613367268 388.378888358581 0.368236170106498
3180000 136.874174593891 -126.439254375074 -931.697077578197 -1298.48540535641 366.788327778217 0.360503864621094
 3180000    136.87417   -126.43925   -1298.4854   -1298.4854            0    366.78833   -931.69708   0.36050386 
3181000 139.838494190006 -21.3089851965516 -931.650709269815 -1306.38266725355 374.731957983734 0.366746720433149
3182000 142.994969218486 -70.9739230691055 -918.518031269271 -1301.70854763924 383.190516369968 0.362357469230445
 3182000    142.99497   -70.973923   -1301.7085   -1301.7085            0    383.19052   -918.51803   0.36235747 
3183000 139.910001023202 -0.837184140999497 -904.835186931738 -1279.75876522552 374.923578293778 0.360866374468419
3184000 140.852814619605 -33.4881285757985 -918.310895858407 -1295.76097722303 377.450081364626 0.36374673056206
 3184000    140.85281   -33.488129    -1295.761    -1295.761            0    377.45008    -918.3109   0.36374673 
3185000 141.756195632111 46.8633456202028 -892.964226354155 -1272.83514139253 379.870915038376 0.361446165746968
3186000 142.021670265023 94.7365332973012 -915.765117158904 -1296.34743737625 380.582320217347 0.367701957947619
 3186000    142.02167    94.736533   -1296.3474   -1296.3474            0    380.58232   -915.76512   0.36770196 
3187000 144.124391440399 -33.1910658742407 -877.594597134499 -1263.81168071015 386.217083575652 0.35635036871486
3188000 136.279289770532 -56.298875014712 -900.28894437759 -1265.48313060041 365.194186222823 0.354680768761505
 3188000    136.27929   -56.298875   -1265.4831   -1265.4831            0    365.19419   -900.28894   0.35468077 
3189000 142.2669776115 68.4017037156817 -910.204661438676 -1291.44434358476 381.239682146087 0.365654194664617
3190000 142.101260995701 -0.796998890010856 -909.045434445905 -1289.8410377833 380.795603337399 0.362033066445215
 3190000    142.10126  -0.79699889    -1289.841    -1289.841            0     380.7956   -909.04543   0.36203307 
3191000 141.710273235147 100.672041799529 -930.803276094963 -1310.55113067113 379.747854576168 0.371044357414077
3192000 140.108301286632 60.2819417320853 -932.97570545625 -1308.43067853094 375.454973074694 0.368134396927112
 3192000     140.1083    60.281942   -1308.4307   -1308.4307            0    375.45497   -932.97571    0.3681344 
3193000 135.667164118201 72.6379319606488 -908.540958368981 -1272.0948019554 363.553843586422 0.361066181998548
3194000 143.978789383574 73.5755941897615 -914.002319287444 -1299.82922600831 385.826906720869 0.367098712972076
 3194000    143.97879    73.575594   -1299.8292   -1299.8292            0    385.82691   -914.00232   0.36709871 
3195000 138.17095635739 50.1509685228012 -966.203760838785 -1336.46713725885 370.263376420069 0.376207108389747
3196000 139.395037015157 -14.7306150673097 -892.346367462704 -1265.88997186486 373.543604402156 0.357979925756563
 3196000    139.39504   -14.730615     -1265.89     -1265.89            0     373.5436   -892.34637   0.35797993 
3197000 133.062041831912 29.9141576946312 -961.694549953988 -1318.2673216919 356.572771737909 0.372683752962598
3198000 136.312026058473 52.5215767784734 -938.010349114991 -1303.29226034764 365.281911232651 0.3689171424537
 3198000    136.31203    52.521577   -1303.2923   -1303.2923            0    365.28191   -938.01035   0.36891714 
3199000 143.604302107283 42.8386434240243 -904.816444603346 -1289.63981970656 384.823375103218 0.363567460674786
3200000 137.171617610995 60.8850914382467 -924.164181223274 -1291.74958140158 367.585400178301 0.366440253923903
 3200000    137.17162    60.885091   -1291.7496   -1291.7496            0     367.5854   -924.16418   0.36644025 
Loop time of 609.187 on 36 procs for 3000000 steps with 900 atoms

Performance: 850.970 ns/day, 0.028 hours/ns, 4924.597 timesteps/s
99.6% CPU use with 36 MPI tasks x 1 OpenMP threads

MPI task timing breakdown:
Section |  min time  |  avg time  |  max time  |%varavg| %total
---------------------------------------------------------------
Pair    | 135.24     | 142.22     | 153.43     |  40.9 | 23.35
Bond    | 0.52482    | 0.60628    | 0.80643    |   7.0 |  0.10
Neigh   | 10.932     | 11.416     | 13.177     |  18.7 |  1.87
Comm    | 311.4      | 330.06     | 349.42     |  60.5 | 54.18
Output  | 0.2117     | 0.21265    | 0.22643    |   0.5 |  0.03
Modify  | 90.699     | 104.07     | 112.19     |  68.7 | 17.08
Other   |            | 20.61      |            |       |  3.38

Nlocal:    25 ave 30 max 21 min
Histogram: 2 3 6 4 6 8 2 1 2 2
Nghost:    1250.22 ave 1261 max 1235 min
Histogram: 1 2 2 5 3 4 7 4 5 3
Neighs:    3235.81 ave 3942 max 2643 min
Histogram: 2 5 4 3 7 7 3 1 1 3

Total # of neighbors = 116489
Ave neighs/atom = 129.432
Ave special neighs/atom = 0
Neighbor list builds = 53383
Dangerous builds = 0
unfix integrator
write_restart production.restart
undump traj1
Total wall time: 0:10:09
