LAMMPS (12 Dec 2018)
OMP_NUM_THREADS environment is not set. Defaulting to 1 thread. (../comm.cpp:87)
  using 1 OpenMP thread(s) per MPI task
# Lammps script to read in mBuild topologies and perform energy minimization
# Initialization
units           real
boundary        p p p
atom_style      full

# Assume ff info is included in data file
pair_style     lj/cut/coul/cut ${rcut} # read in from job.sp.r_cut
pair_style     lj/cut/coul/cut 14.0 
bond_style  none
angle_style none
dihedral_style  none
read_restart equilibrated_npt.restart
  restoring atom style full from restart
  triclinic box = (-0.226055 -0.226055 -0.226055) to (40.2061 40.2061 40.2061) with tilt (0 0 0)
  3 by 3 by 4 MPI processor grid
  restoring pair style lj/cut/coul/cut from restart
  restoring bond style harmonic from restart
  restoring angle style harmonic from restart
  restoring dihedral style opls from restart
  900 atoms
  0 = max # of 1-2 neighbors
  0 = max # of 1-3 neighbors
  0 = max # of 1-4 neighbors
  1 = max # of special neighbors

pair_modify shift no  #TODO: Look to make sure this shift is okay

neighbor        2.5 bin #skin cutoff

timestep 2.0
thermo 2000
thermo_style custom step temp press pe epair emol ke etotal density

variable tsample equal ${T} #kelvin, modified by job.sp.temperature
variable tsample equal 140.0 
variable psample equal ${P}/101.325 #kPa to atm modified by job.sp.pressure
variable psample equal 1318.0/101.325 
# ________________________________________________________________________________________

# Production
variable startstep equal step
variable t equal temp
variable pressure equal press
variable e equal etotal
variable p equal pe
variable k equal ke
variable d equal density
variable filename string "prlog.txt"
fix output_data all print 1000 "${startstep} ${t} ${pressure} $e $p $k $d" file ${filename} title "step temp press etotal pe ke density"
fix output_data all print 1000 "${startstep} ${t} ${pressure} $e $p $k $d" file prlog.txt title "step temp press etotal pe ke density"
dump traj1 all dcd 10000 prod.dcd
fix integrator all npt temp ${tsample} ${tsample} 100.0 iso ${psample} ${psample} 1000.0 pchain 10
fix integrator all npt temp 140 ${tsample} 100.0 iso ${psample} ${psample} 1000.0 pchain 10
fix integrator all npt temp 140 140 100.0 iso ${psample} ${psample} 1000.0 pchain 10
fix integrator all npt temp 140 140 100.0 iso 13.007648655317 ${psample} 1000.0 pchain 10
fix integrator all npt temp 140 140 100.0 iso 13.007648655317 13.007648655317 1000.0 pchain 10
fix zeromom all momentum 100 linear 1 1 1 rescale
run 3000000
Neighbor list info ...
  update every 1 steps, delay 10 steps, check yes
  max neighbors/atom: 2000, page size: 100000
  master list distance cutoff = 16.5
  ghost atom cutoff = 16.5
  binsize = 8.25, bins = 5 5 5
  1 neighbor lists, perpetual/occasional/extra = 1 0 0
  (1) pair lj/cut/coul/cut, perpetual
      attributes: half, newton on
      pair build: half/bin/newton/tri
      stencil: half/bin/3d/newton/tri
      bin: standard
Per MPI rank memory allocation (min/avg/max) = 5.73 | 5.787 | 5.982 Mbytes
Step Temp Press PotEng E_pair E_mol KinEng TotEng Density 
  200000    136.27139    92.474519   -1273.6731   -1273.6731            0    365.17302   -908.50009   0.36274206 
201000 143.614670071387 15.7745325115817 -903.071951963775 -1287.9231106005 384.851158636725 0.363740361302013
202000 142.257560624653 45.0343901743808 -926.679417645794 -1307.893864638 381.214446992207 0.369289273774303
  202000    142.25756     45.03439   -1307.8939   -1307.8939            0    381.21445   -926.67942   0.36928927 
203000 142.489461457497 20.1380303897427 -893.355829744124 -1275.19171258383 381.835882839704 0.359422235879156
204000 143.226675333516 15.8789657227804 -886.392918643079 -1270.20434906582 383.811430422745 0.359882369609818
  204000    143.22668    15.878966   -1270.2043   -1270.2043            0    383.81143   -886.39292   0.35988237 
205000 140.476501533011 -22.0573374196463 -918.110528664697 -1294.55218569973 376.441657035036 0.363052674162867
206000 146.591463913022 -38.3923383223548 -881.088642268048 -1273.91685894771 392.828216679658 0.356417459784778
  206000    146.59146   -38.392338   -1273.9169   -1273.9169            0    392.82822   -881.08864   0.35641746 
207000 142.15983417338 -69.9157824777678 -912.605108771624 -1293.55767347852 380.952564706899 0.361793536093429
208000 135.456456043297 91.2658342382621 -924.699219398947 -1287.68841839356 362.989198994608 0.365957069357847
  208000    135.45646    91.265834   -1287.6884   -1287.6884            0     362.9892   -924.69922   0.36595707 
209000 148.077108771272 83.5323854076953 -894.244503156569 -1291.05387402288 396.809370866315 0.366712174616387
210000 143.384134955574 -3.39534274575723 -887.124269239119 -1271.35765180615 384.233382567032 0.358188309438017
  210000    143.38413   -3.3953427   -1271.3577   -1271.3577            0    384.23338   -887.12427   0.35818831 
211000 139.643513322565 43.011229578636 -919.717159946334 -1293.92661829469 374.20945834836 0.366418546895036
212000 144.932142530327 46.8228470876142 -928.057588683479 -1316.43924181665 388.381653133166 0.370049385620257
  212000    144.93214    46.822847   -1316.4392   -1316.4392            0    388.38165   -928.05759   0.37004939 
213000 136.112087635883 5.32934134683695 -917.122879498396 -1281.86900609601 364.746126597616 0.362726646322809
214000 133.026568955402 -18.3652308143265 -942.51392771856 -1298.99164107825 356.477713359694 0.36490510443144
  214000    133.02657   -18.365231   -1298.9916   -1298.9916            0    356.47771   -942.51393    0.3649051 
215000 144.107533255953 -120.044630997016 -866.36760491843 -1252.53951280407 386.171907885638 0.350266577822773
216000 138.674135044517 23.9702252710179 -955.836039413467 -1327.44780803223 371.611768618764 0.373816056666868
  216000    138.67414    23.970225   -1327.4478   -1327.4478            0    371.61177   -955.83604   0.37381606 
217000 142.595199452786 45.5189850207064 -893.0069717715 -1275.12620581745 382.119234045947 0.360515977449265
218000 140.085737608385 56.5268287375868 -923.482119741208 -1298.87662783895 375.39450809774 0.367929192565182
  218000    140.08574    56.526829   -1298.8766   -1298.8766            0    375.39451   -923.48212   0.36792919 
219000 141.69593867042 -113.625482403291 -880.432137730251 -1260.14157928189 379.709441551641 0.351869528302669
220000 137.365807098021 -34.1995672685931 -912.793542965442 -1280.89932207885 368.105779113404 0.360855982922737
  220000    137.36581   -34.199567   -1280.8993   -1280.8993            0    368.10578   -912.79354   0.36085598 
221000 138.417338804944 -72.9375904158701 -898.66292183317 -1269.58654118219 370.923619349024 0.355564974762352
222000 136.384120922656 10.4064019240815 -934.965967698357 -1300.44107501605 365.475107317696 0.365796018047143
  222000    136.38412    10.406402   -1300.4411   -1300.4411            0    365.47511   -934.96597   0.36579602 
223000 142.558022145413 87.9606518396254 -946.954907673491 -1328.97451589562 382.019608222132 0.375085495991493
224000 140.303213849648 42.9053003668968 -881.298050128855 -1257.27533980026 375.977289671407 0.357411982305707
  224000    140.30321      42.9053   -1257.2753   -1257.2753            0    375.97729   -881.29805   0.35741198 
225000 142.693371900348 138.580847254988 -934.433976625117 -1316.81628811414 382.382311489022 0.373235157520826
226000 146.082527806119 -14.1617026105114 -866.904433965677 -1258.36883001116 391.464396045483 0.356555031365987
  226000    146.08253   -14.161703   -1258.3688   -1258.3688            0     391.4644   -866.90443   0.35655503 
227000 139.051773378063 31.0078709202358 -931.246463581695 -1303.87020785823 372.623744276533 0.367740899764932
228000 139.652216798754 -4.03623747742294 -931.15558404746 -1305.38836552078 374.232781473317 0.365825787029469
  228000    139.65222   -4.0362375   -1305.3884   -1305.3884            0    374.23278   -931.15558   0.36582579 
229000 152.83889557402 85.1710143096698 -854.593091982434 -1264.16285262862 409.569760646187 0.358556161898062
230000 141.219673608501 36.70522719884 -914.199315555243 -1292.63248664784 378.433171092597 0.363503041476478
  230000    141.21967    36.705227   -1292.6325   -1292.6325            0    378.43317   -914.19932   0.36350304 
231000 140.596408062713 83.1163116098405 -891.676652346642 -1268.43962869301 376.762976346366 0.360464670137298
232000 134.646936179196 -37.5410160187619 -896.71391428408 -1257.53380385171 360.819889567625 0.355354632350015
  232000    134.64694   -37.541016   -1257.5338   -1257.5338            0    360.81989   -896.71391   0.35535463 
233000 141.210549105222 100.377174130512 -891.591028877744 -1269.99974859878 378.408719721038 0.361433985280667
234000 137.952796917668 26.6818121204421 -939.283370000662 -1308.9621340472 369.678764046535 0.368306151708369
  234000     137.9528    26.681812   -1308.9621   -1308.9621            0    369.67876   -939.28337   0.36830615 
235000 150.241032531764 25.7340877198277 -877.9396632534 -1280.54780499746 402.608141744059 0.360703828392384
236000 142.905994653331 34.6501740524593 -876.291298491327 -1259.24338542736 382.952086936038 0.356127724969443
  236000    142.90599    34.650174   -1259.2434   -1259.2434            0    382.95209    -876.2913   0.35612772 
237000 137.955248000661 87.671880854102 -922.776029999397 -1292.46136233126 369.68533233186 0.366502492035219
238000 140.29787881688 6.28238816574199 -896.917833674217 -1272.88082680098 375.962993126764 0.360298281758675
  238000    140.29788    6.2823882   -1272.8808   -1272.8808            0    375.96299   -896.91783   0.36029828 
239000 138.267581070771 -101.918927790734 -917.923057804619 -1288.44536412982 370.522306325203 0.360352906465014
240000 139.686304275972 -83.3279086760836 -855.537122231666 -1229.86124956189 374.324127330224 0.346135783268902
  240000     139.6863   -83.327909   -1229.8612   -1229.8612            0    374.32413   -855.53712   0.34613578 
241000 136.920589931696 78.2700878163356 -947.827422705123 -1314.7401319029 366.912709197776 0.372332415883293
242000 141.721360606136 -21.3119791137203 -915.367988045629 -1295.14555398463 379.777565939006 0.363285765835807
  242000    141.72136   -21.311979   -1295.1456   -1295.1456            0    379.77757   -915.36799   0.36328577 
243000 145.357327925503 83.2826330385476 -901.887047586846 -1291.40809053226 389.521042945416 0.366690124969089
244000 137.65753327137 36.8927924190545 -932.180614915527 -1301.06814672705 368.887531811524 0.368276295364976
  244000    137.65753    36.892792   -1301.0681   -1301.0681            0    368.88753   -932.18061    0.3682763 
245000 134.875558649812 42.4453853859918 -952.84889067511 -1314.28143090484 361.432540229728 0.370002360456576
246000 149.242625191777 14.9396722789313 -876.769925777276 -1276.70258721424 399.932661436969 0.36043846582866
  246000    149.24263    14.939672   -1276.7026   -1276.7026            0    399.93266   -876.76993   0.36043847 
247000 144.699602008724 -27.9314676395244 -904.471744819579 -1292.23024790043 387.758503080846 0.362212919157164
248000 140.851904331873 34.6221416312741 -907.118640250166 -1284.56628227285 377.447642022683 0.364252056940954
  248000     140.8519    34.622142   -1284.5663   -1284.5663            0    377.44764   -907.11864   0.36425206 
249000 139.985588430191 100.363120516481 -943.668025478391 -1318.79415899263 375.126133514242 0.373467987898084
250000 133.51578794809 28.4841511110442 -928.650103614945 -1286.4388007068 357.788697091852 0.362758544054372
  250000    133.51579    28.484151   -1286.4388   -1286.4388            0     357.7887    -928.6501   0.36275854 
251000 137.021746664735 -103.81577101837 -886.002690629331 -1253.18647440392 367.18378377459 0.352346629095227
252000 138.900384906995 35.3600487378693 -908.618478385435 -1280.83653967383 372.218061288395 0.362571200066391
  252000    138.90038    35.360049   -1280.8365   -1280.8365            0    372.21806   -908.61848    0.3625712 
253000 137.55618918802 66.3556273636134 -938.177693107344 -1306.79364829039 368.615955183045 0.368890598963125
254000 138.018045483512 21.1607651880092 -945.624208189853 -1315.47782196554 369.853613775691 0.370523513164133
  254000    138.01805    21.160765   -1315.4778   -1315.4778            0    369.85361   -945.62421   0.37052351 
255000 134.234366592506 30.4496188024086 -924.973206750466 -1284.68751369637 359.7143069459 0.361922398989645
256000 141.32728016568 59.8287046430668 -880.952224334146 -1259.67375390841 378.721529574264 0.357604629053942
  256000    141.32728    59.828705   -1259.6738   -1259.6738            0    378.72153   -880.95222   0.35760463 
257000 144.075257629789 67.4286151574872 -880.581661317572 -1266.66707865096 386.085417333393 0.359127697608959
258000 137.381823605217 25.5311033118239 -906.071059000556 -1274.21975832085 368.148699320291 0.36053297122653
  258000    137.38182    25.531103   -1274.2198   -1274.2198            0     368.1487   -906.07106   0.36053297 
259000 132.634250203125 -20.8438471479508 -911.295334383124 -1266.72173225886 355.426397875741 0.357076152070886
260000 145.224222215163 50.177237340046 -937.67241831988 -1326.83677147295 389.16435315307 0.373697270456953
  260000    145.22422    50.177237   -1326.8368   -1326.8368            0    389.16435   -937.67242   0.37369727 
261000 138.429592947192 -7.45334631011105 -944.842644810217 -1315.7991021753 370.956457365084 0.368654833693429
262000 144.704600626357 74.8007727955879 -902.073029868076 -1289.8449279857 387.771898117625 0.365514120406178
  262000     144.7046    74.800773   -1289.8449   -1289.8449            0     387.7719   -902.07303   0.36551412 
263000 140.765887000108 0.302474138185427 -895.655934225393 -1272.8730714551 377.21713722971 0.360259578555078
264000 141.110003948014 18.0713603067218 -891.383152417735 -1269.52243643121 378.139284013478 0.359100613925674
  264000       141.11     18.07136   -1269.5224   -1269.5224            0    378.13928   -891.38315   0.35910061 
265000 133.875173488756 57.7123215026274 -926.39231905012 -1285.14407891024 358.751759860119 0.364671438941331
266000 137.533909262142 -46.3882523434241 -931.759248000049 -1300.31549859105 368.556250590997 0.365338169732489
  266000    137.53391   -46.388252   -1300.3155   -1300.3155            0    368.55625   -931.75925   0.36533817 
267000 137.461084793899 -77.8425861763157 -899.076354227722 -1267.43745357849 368.361099350763 0.354675149962114
268000 137.743911118323 16.3329340899522 -924.909458492434 -1294.02846118687 369.119002694436 0.364417502789917
  268000    137.74391    16.332934   -1294.0285   -1294.0285            0      369.119   -924.90946    0.3644175 
269000 139.089488880264 27.8673248103609 -932.146537930909 -1304.87135025789 372.724812326985 0.367375745317226
270000 137.682464316988 63.0306678037728 -916.272322217975 -1285.22666295499 368.954340737016 0.364675730698126
  270000    137.68246    63.030668   -1285.2267   -1285.2267            0    368.95434   -916.27232   0.36467573 
271000 135.856642147032 -3.02993962876598 -950.545693287779 -1314.60729028752 364.061596999744 0.370816751925779
272000 146.916048864856 26.3835204005759 -875.935649038597 -1269.63367167002 393.698022631426 0.359428940384566
  272000    146.91605     26.38352   -1269.6337   -1269.6337            0    393.69802   -875.93565   0.35942894 
273000 135.552748875044 19.4852166415851 -935.868266206873 -1299.11550574739 363.24723954052 0.36649378511032
274000 141.247820963271 122.432561800641 -913.936671477382 -1292.44527039424 378.508598916858 0.366981801772547
  274000    141.24782    122.43256   -1292.4453   -1292.4453            0     378.5086   -913.93667    0.3669818 
275000 139.675564306684 69.0597115086567 -925.355037542158 -1299.65038445864 374.295346916483 0.369289279583229
276000 143.326014530775 125.726410017027 -885.173525745016 -1269.25116020628 384.077634461262 0.362178249747523
  276000    143.32601    125.72641   -1269.2512   -1269.2512            0    384.07763   -885.17353   0.36217825 
277000 135.007176679662 -51.6572172306218 -954.106479950166 -1315.89172336307 361.785243412908 0.368214591925655
278000 133.580266910752 -121.773939599144 -911.727504360759 -1269.688988839 357.961484478237 0.354045242271819
  278000    133.58027   -121.77394    -1269.689    -1269.689            0    357.96148    -911.7275   0.35404524 
279000 146.053114275298 -130.064630459375 -888.398318335339 -1279.78389352352 391.38557518818 0.355033063024074
280000 139.828969772435 41.8983737355467 -891.161308590642 -1265.8677435332 374.70643494256 0.360822858185098
  280000    139.82897    41.898374   -1265.8677   -1265.8677            0    374.70643   -891.16131   0.36082286 
281000 143.741737903478 12.2944819461673 -945.162354665604 -1330.3540231011 385.191668435492 0.372966826972003
282000 136.691110376681 125.668952399588 -960.279087481763 -1326.57684924703 366.297761765266 0.37684835772068
  282000    136.69111    125.66895   -1326.5768   -1326.5768            0    366.29776   -960.27909   0.37684836 
283000 144.65168341539 52.0947300081879 -902.797344580734 -1290.42743789567 387.630093314937 0.364661138508047
284000 139.751273913538 64.4819111743332 -883.042896813148 -1257.54112641497 374.498229601818 0.358205818448275
  284000    139.75127    64.481911   -1257.5411   -1257.5411            0    374.49823    -883.0429   0.35820582 
285000 146.162802066845 146.874938486939 -891.190009629539 -1282.86952048351 391.679510853973 0.366027374124468
286000 136.223649836257 -4.67840596388462 -910.538110411663 -1275.58319561882 365.045085207156 0.358697728842831
  286000    136.22365    -4.678406   -1275.5832   -1275.5832            0    365.04509   -910.53811   0.35869773 
287000 145.790465620208 -44.6492655617425 -873.167279716924 -1263.84902263521 390.68174291829 0.354504004819215
288000 136.665130875587 -123.38477956497 -973.228965089439 -1339.4571083325 366.228143243065 0.371409432941067
  288000    136.66513   -123.38478   -1339.4571   -1339.4571            0    366.22814   -973.22897   0.37140943 
289000 137.187368239426 8.18807941383933 -963.58557832006 -1331.2131862171 367.627607897039 0.374566360740416
290000 136.875156546041 -11.3336070142419 -920.093990463184 -1286.88494962594 366.790959162758 0.362183645329489
  290000    136.87516   -11.333607   -1286.8849   -1286.8849            0    366.79096   -920.09399   0.36218365 
291000 135.39482129715 35.457772964886 -937.082741480834 -1299.90677487324 362.824033392409 0.366523431059539
292000 140.393088763807 -35.2858046858212 -936.082090487601 -1312.30022230159 376.218131813989 0.366786616487298
  292000    140.39309   -35.285805   -1312.3002   -1312.3002            0    376.21813   -936.08209   0.36678662 
293000 140.456051545164 30.2815666924927 -887.72566870826 -1264.11252492446 376.386856216199 0.357363399636222
294000 136.606448330465 -31.8712273107736 -952.723641324071 -1318.79453012042 366.070888796352 0.368399941974149
  294000    136.60645   -31.871227   -1318.7945   -1318.7945            0    366.07089   -952.72364   0.36839994 
295000 137.518885353699 44.1963052209598 -945.450129300079 -1313.96611959895 368.515990298866 0.370329015529888
296000 137.114600361143 49.7349511652085 -927.511794488545 -1294.94440279219 367.432608303649 0.366930632859131
  296000     137.1146    49.734951   -1294.9444   -1294.9444            0    367.43261   -927.51179   0.36693063 
297000 136.175913376548 11.9255157277258 -921.031815933888 -1285.9489794474 364.917163513507 0.363337366575316
298000 137.836234614875 -73.7503820762744 -936.08410428533 -1305.45051070669 369.366406421364 0.365634094985283
  298000    137.83623   -73.750382   -1305.4505   -1305.4505            0    369.36641    -936.0841   0.36563409 
299000 140.517203275978 54.9892174337059 -912.005704832961 -1288.55643229187 376.550727458913 0.364386944476155
300000 135.05497152661 11.5461496003839 -947.396664760219 -1309.30998632988 361.913321569656 0.369167891809716
  300000    135.05497     11.54615     -1309.31     -1309.31            0    361.91332   -947.39666   0.36916789 
301000 142.259586684098 50.6394631163735 -882.821442953656 -1264.04131927508 381.219876321429 0.359412937333283
302000 131.771300715798 -112.002643094585 -945.931388125969 -1299.04529863619 353.113910510226 0.36249266548734
  302000     131.7713   -112.00264   -1299.0453   -1299.0453            0    353.11391   -945.93139   0.36249267 
303000 137.77896594431 14.463411261935 -943.045103761799 -1312.2580445643 369.2129408025 0.369575068835619
304000 140.484117886001 26.8041471481362 -933.475081895544 -1309.93714883906 376.462066943518 0.368079475479645
  304000    140.48412    26.804147   -1309.9371   -1309.9371            0    376.46207   -933.47508   0.36807948 
305000 138.174373234977 5.84921670926439 -940.297124842993 -1310.56965763475 370.272532791752 0.367192296109345
306000 140.211396381529 -15.128633920984 -914.771009549757 -1290.50225152303 375.731241973276 0.363112846614874
  306000     140.2114   -15.128634   -1290.5023   -1290.5023            0    375.73124   -914.77101   0.36311285 
307000 144.483054989607 9.24566701696031 -900.321608659601 -1287.49982024818 387.178211588582 0.363093344007687
308000 134.01422489339 131.897321373502 -930.935301486023 -1290.05968410228 359.124382616253 0.366119830100799
  308000    134.01422    131.89732   -1290.0597   -1290.0597            0    359.12438    -930.9353   0.36611983 
309000 140.008113224259 33.5892328394501 -911.588264067374 -1286.77475835876 375.186494291388 0.36395620460615
310000 138.202213480585 -16.615889478249 -923.049180157365 -1293.39631779815 370.347137640781 0.364782816954266
  310000    138.20221   -16.615889   -1293.3963   -1293.3963            0    370.34714   -923.04918   0.36478282 
311000 141.067556185339 2.78350585565722 -924.061292296651 -1302.08682699302 378.025534696373 0.365786983607927
312000 139.412002606112 15.5952305972615 -917.796176957179 -1291.38524487175 373.589067914573 0.362736993133273
  312000      139.412    15.595231   -1291.3852   -1291.3852            0    373.58907   -917.79618   0.36273699 
313000 152.355459347353 122.229697221343 -911.45915311913 -1319.73342639019 408.274273271065 0.373493436496972
314000 134.707750566403 -35.8751197790085 -897.792948756519 -1258.77580557092 360.982856814403 0.353741124362967
  314000    134.70775    -35.87512   -1258.7758   -1258.7758            0    360.98286   -897.79295   0.35374112 
315000 141.307241839638 9.2668573684726 -918.709903606647 -1297.37773551207 378.667831905423 0.364777702789175
316000 140.395166688696 69.1767603944596 -899.910474045238 -1276.13417417478 376.223700129545 0.361725235867916
  316000    140.39517     69.17676   -1276.1342   -1276.1342            0     376.2237   -899.91047   0.36172524 
317000 129.910441096627 80.528622400659 -947.314885103142 -1295.44216033341 348.127275230263 0.367783993349617
318000 140.046793547686 -0.707533859117726 -921.994333204738 -1297.28448102456 375.290147819819 0.366243535772005
  318000    140.04679  -0.70753386   -1297.2845   -1297.2845            0    375.29015   -921.99433   0.36624354 
319000 140.142629337066 -34.6594899041627 -942.472342803634 -1318.01930641089 375.546963607254 0.368823325210771
320000 136.191956761737 -62.8479889791537 -927.67232645501 -1292.63248220166 364.96015574665 0.361892155747129
  320000    136.19196   -62.847989   -1292.6325   -1292.6325            0    364.96016   -927.67233   0.36189216 
321000 137.871998196915 10.3805895927266 -883.45903606971 -1252.92127988692 369.462243817211 0.354036021719162
322000 136.613316770673 43.7130517464296 -943.924698110281 -1310.01399259716 366.089294486876 0.369096124987762
  322000    136.61332    43.713052    -1310.014    -1310.014            0    366.08929    -943.9247   0.36909612 
323000 140.173773083219 -22.6920589636918 -908.763306948051 -1284.39372795409 375.630421006039 0.360577515511546
324000 140.030979355691 48.6039698303676 -889.067529662267 -1264.315299429 375.247769766732 0.358879528571235
  324000    140.03098     48.60397   -1264.3153   -1264.3153            0    375.24777   -889.06753   0.35887953 
325000 135.969557105367 -77.9550921804788 -923.757288611249 -1288.12146927129 364.364180660041 0.361369103740389
326000 133.633533523634 35.6485581042543 -943.669025917952 -1301.77325150804 358.104225590089 0.366981997830868
  326000    133.63353    35.648558   -1301.7733   -1301.7733            0    358.10423   -943.66903     0.366982 
327000 139.335790318937 -42.3457037091818 -942.651949598142 -1316.03678777068 373.384838172535 0.367468257592978
328000 135.601336548153 13.2104315487159 -871.968759259348 -1235.34620153112 363.377442271773 0.352135952692149
  328000    135.60134    13.210432   -1235.3462   -1235.3462            0    363.37744   -871.96876   0.35213595 
329000 133.997871057521 -81.5727109965746 -909.580890413643 -1268.66144886709 359.080558453449 0.3561209167359
330000 139.30679570379 98.5557081742998 -924.604245602682 -1297.91138550645 373.307139903771 0.368285628588374
  330000     139.3068    98.555708   -1297.9114   -1297.9114            0    373.30714   -924.60425   0.36828563 
331000 138.373712917977 -3.33968142297239 -936.841641594134 -1307.64835454956 370.806712955428 0.366737292254329
332000 140.883827032542 74.7445822806304 -905.048054549906 -1282.58124137336 377.533186823456 0.364129908032499
  332000    140.88383    74.744582   -1282.5812   -1282.5812            0    377.53319   -905.04805   0.36412991 
333000 138.887273320578 12.1072323697772 -920.829329913434 -1293.01225545127 372.182925537837 0.3645902348782
334000 135.408761895433 -76.3659312341026 -909.010691473467 -1271.87208215952 362.86139068605 0.35685861513143
  334000    135.40876   -76.365931   -1271.8721   -1271.8721            0    362.86139   -909.01069   0.35685862 
335000 140.104594372572 73.3380084424822 -900.795140046946 -1276.24017952523 375.445039478285 0.361592315881547
336000 139.336474849626 89.8063966948316 -897.926893820014 -1271.31356636245 373.38667254244 0.361632282336754
  336000    139.33647    89.806397   -1271.3136   -1271.3136            0    373.38667   -897.92689   0.36163228 
337000 136.513070935154 16.1749630923664 -889.481331889208 -1255.30199277529 365.820660886082 0.354664620338958
338000 136.017790240475 -48.2985237344493 -874.470197737135 -1238.96363105585 364.493433318713 0.349275646692486
  338000    136.01779   -48.298524   -1238.9636   -1238.9636            0    364.49343    -874.4702   0.34927565 
339000 137.783208316772 63.6306890101153 -926.091561464943 -1295.31587075756 369.224309292617 0.367964558853982
340000 136.516679585472 116.360413432591 -905.492218909089 -1271.32255006949 365.830331160402 0.362097364189326
  340000    136.51668    116.36041   -1271.3226   -1271.3226            0    365.83033   -905.49222   0.36209736 
341000 145.844796305887 51.4795094097529 -866.119650603817 -1256.94698608116 390.827335477342 0.35701550872007
342000 145.097360804826 29.3800323356793 -875.873369918057 -1264.69776643069 388.824396512635 0.355185207829927
  342000    145.09736    29.380032   -1264.6978   -1264.6978            0     388.8244   -875.87337   0.35518521 
343000 139.427060889403 125.563129915397 -917.739305143162 -1291.36872546581 373.629420322643 0.367464953216278
344000 135.146039673784 -10.5287330333897 -908.188981822451 -1270.34634309876 362.157361276306 0.359900390593634
  344000    135.14604   -10.528733   -1270.3463   -1270.3463            0    362.15736   -908.18898   0.35990039 
345000 142.973746676726 -64.9046544541632 -910.519740524992 -1293.65338582614 383.133645301144 0.361033510254856
346000 147.8636594481 -12.6576514155501 -920.734893334354 -1316.97227375365 396.237380419294 0.368470136581088
  346000    147.86366   -12.657651   -1316.9723   -1316.9723            0    396.23738   -920.73489   0.36847014 
347000 141.425931225954 -42.8640907418496 -915.008582490794 -1293.9944720697 378.98588957891 0.363696580628437
348000 138.655332994335 -40.8012509906111 -906.041922885334 -1277.60330674331 371.561383857974 0.359420821698704
  348000    138.65533   -40.801251   -1277.6033   -1277.6033            0    371.56138   -906.04192   0.35942082 
349000 134.716911618704 20.5817208087832 -948.506997623322 -1309.51440375146 361.007406128138 0.367275175834173
350000 136.267211058642 45.6813573505541 -954.781856639836 -1319.94367495579 365.161818315955 0.372941789355671
  350000    136.26721    45.681357   -1319.9437   -1319.9437            0    365.16182   -954.78186   0.37294179 
351000 140.891627740618 98.8610620241325 -923.870335597577 -1301.42442635473 377.554090757153 0.370912701034334
352000 134.036240177154 -44.9405851006807 -938.804845985271 -1297.98822401933 359.183378034063 0.364797609861145
  352000    134.03624   -44.940585   -1297.9882   -1297.9882            0    359.18338   -938.80485   0.36479761 
353000 143.549686917163 -43.6068321285946 -914.634372761195 -1299.31139290509 384.677020143892 0.362231170620012
354000 136.058091469627 12.4635401922934 -913.928722671757 -1278.53015313815 364.601430466398 0.361606764665192
  354000    136.05809     12.46354   -1278.5302   -1278.5302            0    364.60143   -913.92872   0.36160676 
355000 137.186034709322 -50.189151385261 -933.797962964048 -1301.42199733614 367.624034372096 0.363866782408342
356000 140.25541750434 -1.77356843132421 -933.788427177069 -1309.6376346765 375.849207499431 0.369048055014285
  356000    140.25542   -1.7735684   -1309.6376   -1309.6376            0    375.84921   -933.78843   0.36904806 
357000 134.76290749707 78.0983243843352 -904.378617685324 -1265.50928118733 361.130663502002 0.360973252122449
358000 139.515922960532 -44.6636705595495 -891.135359486054 -1265.00290778696 373.867548300907 0.355143814645252
  358000    139.51592   -44.663671   -1265.0029   -1265.0029            0    373.86755   -891.13536   0.35514381 
359000 143.133017997685 14.3631276334836 -930.86269116457 -1314.42314350693 383.560452342363 0.368252176176212
360000 137.494466830028 -83.959369695114 -890.57091177382 -1259.02146657698 368.450554803158 0.353592317329609
  360000    137.49447    -83.95937   -1259.0215   -1259.0215            0    368.45055   -890.57091   0.35359232 
361000 139.351710374398 -57.6401102654016 -936.88720487509 -1310.31470478815 373.427499913056 0.365634454213449
362000 138.526091823398 31.4595990603035 -909.638771122122 -1280.85382118039 371.215050058273 0.361674186207845
  362000    138.52609    31.459599   -1280.8538   -1280.8538            0    371.21505   -909.63877   0.36167419 
363000 139.886913127831 5.87686751497263 -942.432962774505 -1317.29467132141 374.861708546909 0.369823209632328
364000 156.636784942056 79.1540961296059 -892.922002346229 -1312.66915032295 419.747147976718 0.371398981619748
  364000    156.63678    79.154096   -1312.6692   -1312.6692            0    419.74715     -892.922   0.37139898 
365000 139.133927538598 88.2221597717535 -922.076531557506 -1294.92042830073 372.84389674322 0.368235909451147
366000 137.44430063714 28.3594004663071 -915.875911964078 -1284.19203400039 368.316122036314 0.363396213066605
  366000     137.4443      28.3594    -1284.192    -1284.192            0    368.31612   -915.87591   0.36339621 
367000 138.657005780669 -27.3261055090107 -928.859404669766 -1300.42527117397 371.565866504201 0.36471459521897
368000 137.586849867141 -47.2087445697545 -915.026037327738 -1283.72415541154 368.698118083802 0.359555400201105
  368000    137.58685   -47.208745   -1283.7242   -1283.7242            0    368.69812   -915.02604    0.3595554 
369000 131.14664525326 -17.8124573196588 -920.320682200409 -1271.76067333745 351.439991137038 0.360083932078945
370000 139.535498717835 105.302274995674 -945.32886380833 -1319.24887021032 373.920006401986 0.372932626438184
  370000     139.5355    105.30227   -1319.2489   -1319.2489            0    373.92001   -945.32886   0.37293263 
371000 136.25179245801 -97.7495456753717 -957.114053285076 -1322.2345536332 365.120500348126 0.3682957685688
372000 131.206708891125 47.0460845172795 -931.719753004406 -1283.320699569 351.600946564591 0.363128984874304
  372000    131.20671    47.046085   -1283.3207   -1283.3207            0    351.60095   -931.71975   0.36312898 
373000 143.598973496865 191.441621050752 -918.004440093747 -1302.8135358626 384.809095768855 0.372465552773693
374000 135.622024635297 158.154282333189 -912.866233589247 -1276.29911472603 363.432881136784 0.364144321774112
  374000    135.62202    158.15428   -1276.2991   -1276.2991            0    363.43288   -912.86623   0.36414432 
375000 147.514010906506 89.481385650374 -893.582589669083 -1288.88300002619 395.300410357105 0.365551272584357
376000 142.255033891526 -74.4118352745623 -902.850334866825 -1284.05801085039 381.207675983569 0.359675731005894
  376000    142.25503   -74.411835    -1284.058    -1284.058            0    381.20768   -902.85033   0.35967573 
377000 146.286658189438 -14.4673571425139 -876.523242258089 -1268.53465633797 392.011414079881 0.357168492824488
378000 137.723164768049 -36.8626351164495 -919.574614017654 -1288.63802171656 369.063407698907 0.362743379305702
  378000    137.72316   -36.862635    -1288.638    -1288.638            0    369.06341   -919.57461   0.36274338 
379000 136.031184890796 -13.1664770526676 -913.562128533133 -1278.0914561424 364.529327609269 0.358660764323872
380000 140.835145304253 104.59606247706 -877.793809146575 -1255.19654119457 377.402732048 0.359108291083927
  380000    140.83515    104.59606   -1255.1965   -1255.1965            0    377.40273   -877.79381   0.35910829 
381000 141.212901995485 -7.70153589781957 -904.524746895906 -1282.93977177047 378.415024874568 0.359721157817187
382000 135.123080148381 -69.4333908291315 -968.67343667159 -1330.76927220022 362.095835528633 0.371676992462978
  382000    135.12308   -69.433391   -1330.7693   -1330.7693            0    362.09584   -968.67344   0.37167699 
383000 147.078728737376 -14.3791586639522 -858.76102391522 -1252.89498764789 394.133963732673 0.353210904184802
384000 135.064603708594 -42.7243390865276 -933.692801275872 -1295.6319346682 361.939133392325 0.362329454657878
  384000     135.0646   -42.724339   -1295.6319   -1295.6319            0    361.93913    -933.6928   0.36232945 
385000 133.219785862037 31.380728867306 -907.74368673131 -1264.73917275552 356.995486024211 0.357656051072897
386000 146.381101820189 -11.2625906286351 -855.404636902158 -1247.66913613485 392.264499232687 0.351908329754816
  386000     146.3811   -11.262591   -1247.6691   -1247.6691            0     392.2645   -855.40464   0.35190833 
387000 142.199675163321 56.110110446269 -939.316776196197 -1320.37610472557 381.059328529372 0.371687893260524
388000 136.381226860715 34.2802674155659 -908.817636310027 -1274.28498827034 365.467351960317 0.359703198310966
  388000    136.38123    34.280267    -1274.285    -1274.285            0    365.46735   -908.81764    0.3597032 
389000 140.989749647745 -124.280564035043 -881.585396383292 -1259.40242914788 377.817032764588 0.351093823614839
390000 131.729992850408 110.774467241546 -937.837284098197 -1290.84049992905 353.003215830856 0.368230724759651
  390000    131.72999    110.77447   -1290.8405   -1290.8405            0    353.00322   -937.83728   0.36823072 
391000 139.245841267885 51.9040334594655 -913.174386651737 -1286.31818401348 373.143797361742 0.362491400784633
392000 135.212394752427 -38.2061016637836 -916.768568651338 -1279.10374483252 362.335176181179 0.359690901856903
  392000    135.21239   -38.206102   -1279.1037   -1279.1037            0    362.33518   -916.76857    0.3596909 
393000 139.605946838296 -66.1278752014601 -925.124658486206 -1299.23344811465 374.108789628447 0.3630056056332
394000 143.002196961549 36.1927028446686 -905.108325322803 -1288.31821022449 383.209884901682 0.3639567789335
  394000     143.0022    36.192703   -1288.3182   -1288.3182            0    383.20988   -905.10833   0.36395678 
395000 139.786709291622 66.0965821125153 -904.679200651246 -1279.27238814494 374.593187493694 0.362525967630207
396000 141.64463983159 30.2383123115392 -897.398147562367 -1276.9701211412 379.571973578831 0.362223203556914
  396000    141.64464    30.238312   -1276.9701   -1276.9701            0    379.57197   -897.39815    0.3622232 
397000 143.082512989886 48.9490131930585 -919.639207477818 -1303.06431911468 383.425111636858 0.367006751765918
398000 142.546491126361 63.2734839579088 -889.600131589108 -1271.58883958329 381.988707994182 0.360403825219017
  398000    142.54649    63.273484   -1271.5888   -1271.5888            0    381.98871   -889.60013   0.36040383 
399000 135.70218871596 80.1233405998024 -929.950543115591 -1293.59824380604 363.647700690445 0.365854462429256
400000 150.171152154934 35.9324616348647 -847.344418034853 -1249.76529796244 402.420879927592 0.353645854821886
  400000    150.17115    35.932462   -1249.7653   -1249.7653            0    402.42088   -847.34442   0.35364585 
401000 139.748213369449 106.042060876661 -915.073895507552 -1289.56392362175 374.490028114198 0.365231331435208
402000 142.567516485404 -21.99138468635 -870.512822063207 -1252.55787272617 382.045050662966 0.354420435474507
  402000    142.56752   -21.991385   -1252.5579   -1252.5579            0    382.04505   -870.51282   0.35442044 
403000 139.322656229841 2.82557488304471 -913.126849641291 -1286.47649176175 373.349642120462 0.362957627962644
404000 134.560264053627 -93.8558774987576 -919.687290803227 -1280.27492089534 360.587630092114 0.358427805333107
  404000    134.56026   -93.855877   -1280.2749   -1280.2749            0    360.58763   -919.68729   0.35842781 
405000 137.206958557168 -62.8295032628202 -932.203382450635 -1299.88348746707 367.68010501643 0.363036275088253
406000 136.026930225048 37.0155244456746 -935.897727526707 -1300.41565370295 364.517926176238 0.366394001422031
  406000    136.02693    37.015524   -1300.4157   -1300.4157            0    364.51793   -935.89773     0.366394 
407000 148.531452750278 16.7952134479904 -872.165296451945 -1270.19219479406 398.026898342117 0.357341173106615
408000 136.148112849754 -15.4502057855732 -925.669061180203 -1290.5117262811 364.8426651009 0.363657773061449
  408000    136.14811   -15.450206   -1290.5117   -1290.5117            0    364.84267   -925.66906   0.36365777 
409000 142.808991808929 24.2981395288363 -882.871189899791 -1265.56333363476 382.692143734966 0.358379775855041
410000 140.576695104813 25.8424763754347 -933.21723450021 -1309.92738508244 376.710150582228 0.368153805457048
  410000     140.5767    25.842476   -1309.9274   -1309.9274            0    376.71015   -933.21723   0.36815381 
411000 148.718966604658 140.568555269873 -883.778326745211 -1282.30771500763 398.529388262419 0.365683774727474
412000 147.718112381201 119.637127422664 -901.509685544243 -1297.35703646791 395.847350923668 0.368475574380026
  412000    147.71811    119.63713    -1297.357    -1297.357            0    395.84735   -901.50969   0.36847557 
413000 138.308225326723 107.529350054962 -945.534422021449 -1316.1656447198 370.631222698352 0.372605581190754
414000 138.640260379631 -50.3103205171035 -946.410459271046 -1317.93145231637 371.520993045324 0.368537069963566
  414000    138.64026   -50.310321   -1317.9315   -1317.9315            0    371.52099   -946.41046   0.36853707 
415000 141.51153573993 82.3493467430366 -923.191837712688 -1302.40712583683 379.215288124141 0.369518664671689
416000 138.521161081479 24.4103686071159 -912.839980713946 -1284.04181762526 371.201836911318 0.363991576546589
  416000    138.52116    24.410369   -1284.0418   -1284.0418            0    371.20184   -912.83998   0.36399158 
417000 141.357953917632 41.7931687416968 -925.280791520392 -1304.08451902731 378.803727506917 0.368818340391266
418000 132.615459227336 -110.855041589687 -922.707359563136 -1278.08340235467 355.376042791538 0.357537649193417
  418000    132.61546   -110.85504   -1278.0834   -1278.0834            0    355.37604   -922.70736   0.35753765 
419000 135.553866289634 -52.4394154615951 -932.753864913543 -1296.00409884384 363.250233930294 0.363450281147552
420000 134.164893330262 64.2218032499688 -926.525013003735 -1286.05314909776 359.528136094025 0.365115572062631
  420000    134.16489    64.221803   -1286.0531   -1286.0531            0    359.52814   -926.52501   0.36511557 
421000 138.355521156382 -17.9474160958833 -936.782213373993 -1307.54017698839 370.757963614401 0.367673517771804
422000 142.583798372471 -28.8056973957274 -870.203557904891 -1252.29223992599 382.088682021097 0.353197872047158
  422000     142.5838   -28.805697   -1252.2922   -1252.2922            0    382.08868   -870.20356   0.35319787 
423000 142.608046531006 104.457550088346 -942.670510495945 -1324.82417147708 382.153660981131 0.37527738513523
424000 136.355186626577 50.578061324044 -883.654983844249 -1249.0525545331 365.397570688848 0.35556113383891
  424000    136.35519    50.578061   -1249.0526   -1249.0526            0    365.39757   -883.65498   0.35556113 
425000 141.803223489625 78.2326220844244 -935.055957136497 -1315.05289499304 379.996937856543 0.372119817378657
426000 137.505483695723 -7.54249396685195 -911.824029000946 -1280.30410623051 368.48007722956 0.360634834787787
  426000    137.50548    -7.542494   -1280.3041   -1280.3041            0    368.48008   -911.82403   0.36063483 
427000 139.274845183789 72.9258365135505 -913.723213012563 -1286.94473356676 373.221520554194 0.365445798666996
428000 138.160486923879 38.3686474148208 -917.626605663447 -1287.86192663754 370.235320974098 0.364293571032167
  428000    138.16049    38.368647   -1287.8619   -1287.8619            0    370.23532   -917.62661   0.36429357 
429000 134.384458482469 -8.87662632981913 -933.008391344681 -1293.12490676779 360.116515423108 0.364734084341091
430000 141.687125795622 -85.3781717167542 -931.227788342233 -1310.91361360819 379.685825265957 0.364185806602598
  430000    141.68713   -85.378172   -1310.9136   -1310.9136            0    379.68583   -931.22779   0.36418581 
431000 136.627536477218 -6.19260939571771 -940.385640388104 -1306.51304010849 366.12739972039 0.365840382118586
432000 140.14705132389 129.038870929218 -885.192361373821 -1260.75117479246 375.558813418641 0.360794664012867
  432000    140.14705    129.03887   -1260.7512   -1260.7512            0    375.55881   -885.19236   0.36079466 
433000 141.210268663767 19.3517757906702 -894.41889609234 -1272.82686430089 378.407968208545 0.358283842653462
434000 142.498663818414 -62.1341585273267 -882.202709681354 -1264.06325253148 381.860542850129 0.355883187829693
  434000    142.49866   -62.134159   -1264.0633   -1264.0633            0    381.86054   -882.20271   0.35588319 
435000 139.882598388131 -0.807855066817999 -888.289421016455 -1263.13956714727 374.850146130813 0.357973988203399
436000 138.749118644671 49.646052245957 -897.887223988286 -1269.69992977721 371.812705788925 0.360393968460007
  436000    138.74912    49.646052   -1269.6999   -1269.6999            0    371.81271   -897.88722   0.36039397 
437000 140.3914423301 51.652836503305 -879.665883678922 -1255.87960346509 376.21371978617 0.35706434069951
438000 146.182027646455 39.4653525941561 -896.653685558104 -1288.38471612511 391.731030567001 0.363745033761571
  438000    146.18203    39.465353   -1288.3847   -1288.3847            0    391.73103   -896.65369   0.36374503 
439000 142.874471169517 -19.6218442803994 -919.133936893246 -1302.00154882917 382.867611935927 0.365868948583569
440000 138.039471678011 -8.8725544402923 -900.501145241321 -1270.4121758239 369.911030582581 0.359018271698563
  440000    138.03947   -8.8725544   -1270.4122   -1270.4122            0    369.91103   -900.50115   0.35901827 
441000 145.46877866081 -35.6387276255632 -903.235298268794 -1293.05500112543 389.819702856637 0.362567115084376
442000 134.759342868383 20.535393769049 -915.677819605561 -1276.79893080013 361.121111194571 0.36069248101046
  442000    134.75934    20.535394   -1276.7989   -1276.7989            0    361.12111   -915.67782   0.36069248 
443000 143.864810053847 81.5626367968029 -896.121264129289 -1281.6427349425 385.521470813215 0.361998946873071
444000 143.054560956286 71.3471050786631 -923.539476987946 -1306.8896842121 383.350207224155 0.369621503809538
  444000    143.05456    71.347105   -1306.8897   -1306.8897            0    383.35021   -923.53948    0.3696215 
445000 138.390591008936 28.8537543980886 -900.280935338911 -1271.1328773288 370.851941989885 0.360704425773157
446000 142.149513858208 -90.7143441396895 -911.439211779202 -1292.36412063974 380.924908860534 0.361110436350538
  446000    142.14951   -90.714344   -1292.3641   -1292.3641            0    380.92491   -911.43921   0.36111044 
447000 137.377933371964 78.3877546499716 -930.530081284169 -1298.66835575877 368.1382744746 0.36978230989763
448000 132.727587955298 30.8180843192586 -916.791638748671 -1272.46815830105 355.67651955238 0.359584913423991
  448000    132.72759    30.818084   -1272.4682   -1272.4682            0    355.67652   -916.79164   0.35958491 
449000 145.839842151419 11.0271221820491 -913.476093955278 -1304.29015354593 390.814059590652 0.366747114568187
450000 137.332607111202 15.5959475180213 -902.520625957484 -1270.53743746481 368.016811507326 0.358204002661578
  450000    137.33261    15.595948   -1270.5374   -1270.5374            0    368.01681   -902.52063     0.358204 
451000 137.480817304597 17.6586926074571 -908.199472457834 -1276.61344996931 368.413977511477 0.361539112297371
452000 137.356242501968 -63.4738024706111 -921.315821712028 -1289.39597011604 368.080148404013 0.362429699755935
  452000    137.35624   -63.473802    -1289.396    -1289.396            0    368.08015   -921.31582    0.3624297 
453000 146.645557155083 63.732071201918 -891.500415462136 -1284.47358841173 392.973172949593 0.364129606798486
454000 142.586549512592 31.0616006145761 -909.820706794757 -1291.91676117874 382.096054383979 0.364697748872772
  454000    142.58655    31.061601   -1291.9168   -1291.9168            0    382.09605   -909.82071   0.36469775 
455000 136.240785013885 35.4649460374896 -902.386196860522 -1267.47720002968 365.09100316916 0.358959592835458
456000 140.921695947492 -9.41350042110952 -928.816350581179 -1306.45101656263 377.634665981451 0.365475203426704
  456000     140.9217   -9.4135004    -1306.451    -1306.451            0    377.63467   -928.81635    0.3654752 
457000 138.970765144676 45.8268143224347 -940.235405625589 -1312.64206823169 372.406662606098 0.368259834440365
458000 133.736531730141 15.7283562633089 -932.971151604361 -1291.35138645654 358.38023485218 0.364717221453684
  458000    133.73653    15.728356   -1291.3514   -1291.3514            0    358.38023   -932.97115   0.36471722 
459000 139.121500847207 -16.5347754542111 -906.195371139056 -1279.00596747795 372.810596338898 0.360132066518242
460000 141.12227778554 36.8701465413337 -917.399690528114 -1295.57186533604 378.172174807926 0.364644248862651
  460000    141.12228    36.870147   -1295.5719   -1295.5719            0    378.17217   -917.39969   0.36464425 
461000 137.320984267621 -1.48142865401741 -934.004515613106 -1301.99018082586 367.985665212754 0.366945130984385
462000 136.907570070483 -7.86060047000202 -947.915996209399 -1314.79381545707 366.877819247671 0.370446921023236
  462000    136.90757   -7.8606005   -1314.7938   -1314.7938            0    366.87782     -947.916   0.37044692 
463000 142.232413712774 80.8935305341566 -891.590590823229 -1272.73765042271 381.147059599483 0.361083615704208
464000 144.732137497308 115.9215436826 -922.334706533363 -1310.18039653231 387.845689998951 0.371768239713728
  464000    144.73214    115.92154   -1310.1804   -1310.1804            0    387.84569   -922.33471   0.37176824 
465000 149.293570167495 3.42095381032141 -896.755714266422 -1296.82489541215 400.069181145728 0.362691451041343
466000 134.793202675257 -14.2379540398101 -913.412165016214 -1274.62401196849 361.211846952277 0.358618052491853
  466000     134.7932   -14.237954    -1274.624    -1274.624            0    361.21185   -913.41217   0.35861805 
467000 142.474054819006 78.9773521609316 -882.877964368488 -1264.67256129589 381.794596927401 0.358911220880953
468000 147.427667155988 69.1232119140439 -889.75511715472 -1284.82414799877 395.069030844054 0.364439337045737
  468000    147.42767    69.123212   -1284.8241   -1284.8241            0    395.06903   -889.75512   0.36443934 
469000 140.544351435738 -26.142560176631 -937.846043893455 -1314.46952158557 376.623477692112 0.367578623307536
470000 134.216758934235 -40.2697940528221 -945.504997781043 -1305.17212063577 359.667122854725 0.365596234289688
  470000    134.21676   -40.269794   -1305.1721   -1305.1721            0    359.66712     -945.505   0.36559623 
471000 141.232909540503 20.0938761759466 -909.859773476554 -1288.32841353457 378.468640058015 0.36421421274727
472000 137.358337641307 -54.6586218287797 -927.72267970936 -1295.80844255932 368.085762849958 0.361850650655334
  472000    137.35834   -54.658622   -1295.8084   -1295.8084            0    368.08576   -927.72268   0.36185065 
473000 142.572623650929 33.4723323213349 -919.864332815429 -1301.9230693962 382.058736580768 0.367788654404227
474000 140.283950874473 74.9567439880675 -922.474097157152 -1298.39976690483 375.925669747682 0.366528920399689
  474000    140.28395    74.956744   -1298.3998   -1298.3998            0    375.92567    -922.4741   0.36652892 
475000 144.346102565534 -49.3043397924808 -865.77902129717 -1252.59023486907 386.8112135719 0.352944084738533
476000 134.25298070996 -40.0208369903092 -920.453703534849 -1280.21789162914 359.764188094291 0.359330376614196
  476000    134.25298   -40.020837   -1280.2179   -1280.2179            0    359.76419    -920.4537   0.35933038 
477000 142.687443070028 28.5639613396606 -915.322253568806 -1297.68867728524 382.366423716436 0.366819858345457
478000 137.073829534433 55.3922199020332 -905.932022914573 -1273.25537566731 367.323352752735 0.361966787636391
  478000    137.07383     55.39222   -1273.2554   -1273.2554            0    367.32335   -905.93202   0.36196679 
479000 138.12317459204 -19.8021144705064 -915.716130188463 -1285.85146350717 370.135333318709 0.360697145986539
480000 140.27954550971 -51.410375020255 -948.892461901881 -1324.80632638111 375.913864479234 0.37111015246906
  480000    140.27955   -51.410375   -1324.8063   -1324.8063            0    375.91386   -948.89246   0.37111015 
481000 139.59046452372 86.8273121731303 -934.996493410552 -1309.06379433384 374.06730092329 0.371034259830408
482000 139.278188450544 32.8191066915468 -921.703746956546 -1294.93422662393 373.230479667379 0.366388789565575
  482000    139.27819    32.819107   -1294.9342   -1294.9342            0    373.23048   -921.70375   0.36638879 
483000 141.725380503941 -37.5291012159542 -904.264278821707 -1284.05261707476 379.788338253052 0.360987899232386
484000 150.086978943725 108.166361193081 -895.331835614219 -1297.52715252764 402.195316913424 0.36907084858275
  484000    150.08698    108.16636   -1297.5272   -1297.5272            0    402.19532   -895.33184   0.36907085 
485000 139.997237096246 20.6945052987417 -886.012663035749 -1261.17001204229 375.157349006542 0.355664526313352
486000 143.845536856146 100.153952783952 -919.699445734081 -1305.16926922977 385.469823495692 0.369825829858729
  486000    143.84554    100.15395   -1305.1693   -1305.1693            0    385.46982   -919.69945   0.36982583 
487000 137.572402368255 -21.7113955803152 -888.887526938412 -1257.54692936257 368.659402424162 0.354750224047342
488000 141.88670114755 36.2515335307737 -939.270070232638 -1319.49070719566 380.220636963024 0.371145461890767
  488000     141.8867    36.251534   -1319.4907   -1319.4907            0    380.22064   -939.27007   0.37114546 
489000 142.738254567143 42.8823424857242 -887.675181265646 -1270.17776700179 382.502585736146 0.35915991705587
490000 139.785486605834 -26.3023828731115 -932.926644476497 -1307.51655548011 374.58991100361 0.368134384855187
  490000    139.78549   -26.302383   -1307.5166   -1307.5166            0    374.58991   -932.92664   0.36813438 
491000 140.761986008075 -92.3874997945941 -904.73103632393 -1281.93771987713 377.206683553197 0.360142582123582
492000 140.407176691167 119.172064597884 -939.679893802385 -1315.93577771485 376.255883912468 0.372861601310259
  492000    140.40718    119.17206   -1315.9358   -1315.9358            0    376.25588   -939.67989    0.3728616 
493000 140.333896590157 54.3529004431604 -871.921048672629 -1247.98056036376 376.059511691128 0.354655214248917
494000 132.506993561224 29.0671813298673 -952.427715292687 -1307.51309740691 355.085382114221 0.369228544868302
  494000    132.50699    29.067181   -1307.5131   -1307.5131            0    355.08538   -952.42772   0.36922854 
495000 139.506884361256 18.1300104203538 -915.134144122928 -1288.97747125338 373.84332713045 0.362408171837504
496000 138.736678871641 78.2282195432303 -888.552752413105 -1260.33212274221 371.779370329104 0.358832360743624
  496000    138.73668     78.22822   -1260.3321   -1260.3321            0    371.77937   -888.55275   0.35883236 
497000 139.274683517697 -24.1508904686617 -942.340048248056 -1315.56113557782 373.221087329767 0.369876561552457
498000 141.733165175907 -71.829566513444 -934.8441718799 -1314.65337109391 379.809199214014 0.366468837864713
  498000    141.73317   -71.829567   -1314.6534   -1314.6534            0     379.8092   -934.84417   0.36646884 
499000 136.401611851425 -9.87465370129379 -952.773646049175 -1318.29562465237 365.521978603191 0.369350404741402
500000 141.929472717041 22.4981910762447 -903.242604439336 -1283.57785844021 380.335254000873 0.362835336571634
  500000    141.92947    22.498191   -1283.5779   -1283.5779            0    380.33525    -903.2426   0.36283534 
501000 145.213764913205 36.1507769326111 -897.72570235299 -1286.8620325696 389.136330216607 0.363610745685351
502000 142.918044752852 -22.5143388529992 -955.234886716173 -1338.21926488513 382.984378168959 0.372446561618407
  502000    142.91804   -22.514339   -1338.2193   -1338.2193            0    382.98438   -955.23489   0.37244656 
503000 139.630342657769 64.8862597103954 -909.530855566441 -1283.70501984906 374.17416428262 0.365371331403806
504000 139.986032837868 -14.829236329627 -898.52772619143 -1273.65505060636 375.12732441493 0.359752671985955
  504000    139.98603   -14.829236   -1273.6551   -1273.6551            0    375.12732   -898.52773   0.35975267 
505000 146.780656123641 72.3096726605177 -880.132626240644 -1273.46783041278 393.335204172131 0.362664815922977
506000 145.470248000398 -14.7284866067815 -888.337578976442 -1278.16121929325 389.823640316807 0.359507663428695
  506000    145.47025   -14.728487   -1278.1612   -1278.1612            0    389.82364   -888.33758   0.35950766 
507000 138.4566314393 38.3999663558878 -915.354107603648 -1286.38302132024 371.028913716587 0.36388923164055
508000 142.244139712111 25.588964826251 -904.266041141797 -1285.44452346731 381.17848232551 0.36256523318237
  508000    142.24414    25.588965   -1285.4445   -1285.4445            0    381.17848   -904.26604   0.36256523 
509000 139.733847136974 54.5430524217543 -932.727157737676 -1307.17868796575 374.451530228078 0.369032702908352
510000 140.348073465216 -4.47358869138988 -941.003332283918 -1317.10083443096 376.097502147045 0.368955696508871
  510000    140.34807   -4.4735887   -1317.1008   -1317.1008            0     376.0975   -941.00333    0.3689557 
511000 141.889122872233 -53.368648981374 -897.834046904429 -1278.0611734799 380.227126575471 0.361036251730135
512000 136.712428136397 -84.0333774100333 -923.698125542788 -1290.05301353703 366.354887994239 0.360310074772549
  512000    136.71243   -84.033377    -1290.053    -1290.053            0    366.35489   -923.69813   0.36031007 
513000 140.733827867437 45.4250864022333 -894.070153167604 -1271.20137999313 377.131226825521 0.360610323989282
514000 145.183510326071 57.377463890407 -905.45317388849 -1294.50842942862 389.055255540135 0.36473990514147
  514000    145.18351    57.377464   -1294.5084   -1294.5084            0    389.05526   -905.45317   0.36473991 
515000 133.511381923631 -58.9955882599684 -906.528958099668 -1264.30584815525 357.776890055585 0.358338563907172
516000 139.840180035041 48.5906835759641 -922.487639728483 -1297.22411535247 374.736475623991 0.366155080616998
  516000    139.84018    48.590684   -1297.2241   -1297.2241            0    374.73648   -922.48764   0.36615508 
517000 144.265399215784 143.267999538015 -912.121381254222 -1298.71633016708 386.594948912855 0.369891988071617
518000 144.317602665631 19.1649916121909 -905.950670166677 -1292.68551118212 386.734841015441 0.363488473993472
  518000     144.3176    19.164992   -1292.6855   -1292.6855            0    386.73484   -905.95067   0.36348847 
519000 140.170651245892 -19.7204739362842 -894.796886582276 -1270.41894185025 375.622055267971 0.358638386017524
520000 142.888961981626 -12.4964137855844 -895.485165919502 -1278.3916095836 382.906443664099 0.359729416743133
  520000    142.88896   -12.496414   -1278.3916   -1278.3916            0    382.90644   -895.48517   0.35972942 
521000 145.013412813706 78.0971332517115 -864.952084584868 -1253.55152161647 388.599437031605 0.356889420359099
522000 134.836990551537 -72.9103601648078 -955.08167407395 -1316.4108615104 361.329187436452 0.367218092015248
  522000    134.83699    -72.91036   -1316.4109   -1316.4109            0    361.32919   -955.08167   0.36721809 
523000 132.833065710534 8.86679348527909 -945.042828522124 -1301.00200190293 355.959173380801 0.367127350899211
524000 138.502183340893 69.5171548379235 -915.426334643446 -1286.57731598792 371.150981344478 0.364735354922556
  524000    138.50218    69.517155   -1286.5773   -1286.5773            0    371.15098   -915.42633   0.36473535 
525000 137.911455645703 -9.88642471307245 -936.861933921745 -1306.4299137677 369.567979845957 0.366086142053272
526000 141.150766544834 58.6698616283595 -921.597196984801 -1299.84571449516 378.248517510357 0.367436771696603
  526000    141.15077    58.669862   -1299.8457   -1299.8457            0    378.24852    -921.5972   0.36743677 
527000 142.139625840597 0.526733686271017 -896.076901523232 -1276.97531298602 380.898411462793 0.360406258192613
528000 138.954903874079 42.0657966688464 -903.914792134245 -1276.27895052846 372.364158394211 0.361674377957281
  528000     138.9549    42.065797    -1276.279    -1276.279            0    372.36416   -903.91479   0.36167438 
529000 139.647973977888 -28.1555295943414 -893.512470416125 -1267.73388219771 374.221411781589 0.358780125867201
530000 142.670326133548 30.1756267102447 -906.334948055283 -1288.6555026914 382.320554636117 0.363690132983147
  530000    142.67033    30.175627   -1288.6555   -1288.6555            0    382.32055   -906.33495   0.36369013 
531000 141.855257926913 -66.8151869187872 -879.921255193195 -1260.05763224122 380.136377048023 0.355347743451212
532000 136.846041180448 -40.1525607024573 -927.99356196219 -1294.70649927539 366.7129373132 0.363886186211697
  532000    136.84604   -40.152561   -1294.7065   -1294.7065            0    366.71294   -927.99356   0.36388619 
533000 141.462731467998 36.7116469919381 -919.360772885065 -1298.44527784764 379.084504962574 0.366380272714539
534000 146.645120147305 134.696777440566 -906.36960847999 -1299.34161035876 392.972001878771 0.36968950209693
  534000    146.64512    134.69678   -1299.3416   -1299.3416            0      392.972   -906.36961    0.3696895 
535000 140.975655581266 -42.8905354092334 -916.457637463215 -1294.23690167803 377.779264214816 0.363286145710721
536000 136.792116922297 75.4632818403395 -985.556109860529 -1352.12454373813 366.5684338776 0.381118009967668
  536000    136.79212    75.463282   -1352.1245   -1352.1245            0    366.56843   -985.55611   0.38111801 
537000 141.06548160008 -11.9309406415737 -910.512009845723 -1288.53198517591 378.019975330185 0.362782282861331
538000 136.867188367625 -50.6048827289935 -926.427143988319 -1293.19675043903 366.769606450711 0.362900752597128
  538000    136.86719   -50.604883   -1293.1968   -1293.1968            0    366.76961   -926.42714   0.36290075 
539000 137.9978918302 188.4930551979 -932.190367376978 -1301.98997443578 369.799607058798 0.372651028595543
540000 138.619199039169 -35.6652343126942 -956.575187206736 -1328.03974116213 371.464553955395 0.371275920026837
  540000     138.6192   -35.665234   -1328.0397   -1328.0397            0    371.46455   -956.57519   0.37127592 
541000 134.146969354933 119.774970603855 -931.112427355715 -1290.59253170849 359.480104352772 0.367252398280179
542000 141.384840820956 78.8047821221842 -908.144050868557 -1287.0198285072 378.875777638643 0.366642242942699
  542000    141.38484    78.804782   -1287.0198   -1287.0198            0    378.87578   -908.14405   0.36664224 
543000 137.843390459285 -17.476723474513 -906.923174023654 -1276.30875630645 369.385582282794 0.361297612361616
544000 140.568267936847 35.3618573216778 -892.44258115132 -1269.13014904506 376.687567893744 0.359028134996262
  544000    140.56827    35.361857   -1269.1301   -1269.1301            0    376.68757   -892.44258   0.35902813 
545000 141.660259032583 -57.6976884989404 -894.450060190295 -1274.06388929542 379.613829105124 0.357499234446048
546000 143.293475155482 28.9133206210864 -903.017963868124 -1287.00840099588 383.990437127755 0.364265067018908
  546000    143.29348    28.913321   -1287.0084   -1287.0084            0    383.99044   -903.01796   0.36426507 
547000 141.470655763071 -11.6041414237057 -901.373494460542 -1280.47923453885 379.105740078308 0.360028870369265
548000 137.54525257695 28.6272178762624 -927.787680544503 -1296.37432836334 368.586647818834 0.364396359345735
  548000    137.54525    28.627218   -1296.3743   -1296.3743            0    368.58665   -927.78768   0.36439636 
549000 142.633008154908 -34.2638871541306 -929.794722424813 -1312.01527427354 382.220551848723 0.367932894797744
550000 140.158094298728 -44.5139603474749 -950.960884315897 -1326.54929012687 375.588405810972 0.370433059938574
  550000    140.15809    -44.51396   -1326.5493   -1326.5493            0    375.58841   -950.96088   0.37043306 
551000 145.508893191709 51.9462803673946 -937.07545177176 -1327.00265147177 389.927199700011 0.373643630611922
552000 138.108847952959 -36.4760542307436 -901.945778105631 -1272.04271963855 370.096941532919 0.35821342209465
  552000    138.10885   -36.476054   -1272.0427   -1272.0427            0    370.09694   -901.94578   0.35821342 
553000 136.604234407169 1.66628047609528 -913.734381949988 -1279.7993379893 366.064956039308 0.361900899071977
554000 146.708346384846 35.9186330198627 -862.979838101543 -1256.12127037877 393.141432277225 0.354341697740848
  554000    146.70835    35.918633   -1256.1213   -1256.1213            0    393.14143   -862.97984    0.3543417 
555000 133.24998142378 -51.5244853657258 -919.503938440139 -1276.58034096763 357.076402527496 0.357921457323262
556000 140.593122620973 -26.8831416481724 -890.727526577066 -1267.48169876673 376.754172189662 0.355360044855162
  556000    140.59312   -26.883142   -1267.4817   -1267.4817            0    376.75417   -890.72753   0.35536004 
557000 128.830792069182 -57.9693670226675 -934.49784431041 -1279.73193196501 345.234087654601 0.360744479537996
558000 138.373047881222 29.768298824171 -923.294575209153 -1294.09950603351 370.804930824357 0.363759368599651
  558000    138.37305    29.768299   -1294.0995   -1294.0995            0    370.80493   -923.29458   0.36375937 
559000 134.066442551757 -80.4070981789852 -918.232416538151 -1277.49672933225 359.264312794095 0.356243098152008
560000 136.28175786695 51.6138842835616 -940.123923123011 -1305.32472322285 365.200800099843 0.367766250207615
  560000    136.28176    51.613884   -1305.3247   -1305.3247            0     365.2008   -940.12392   0.36776625 
561000 131.027894154352 -84.7990340028624 -939.206995337325 -1290.32876342667 351.12176808934 0.362125306496404
562000 139.216955665217 59.600461532816 -902.370618218829 -1275.43700943781 373.066391218977 0.361916723707273
  562000    139.21696    59.600462    -1275.437    -1275.437            0    373.06639   -902.37062   0.36191672 
563000 142.057815542387 -26.6360012546926 -865.915298150911 -1246.59447861148 380.679180460565 0.351414420914086
564000 138.857085995415 13.0550498594108 -934.125061203689 -1306.2270923102 372.102031106513 0.368504244629256
  564000    138.85709     13.05505   -1306.2271   -1306.2271            0    372.10203   -934.12506   0.36850424 
565000 140.600965007325 -32.7672837518134 -910.783744407381 -1287.55893221803 376.775187810646 0.361221419917398
566000 141.141257541592 35.6461988542764 -898.554185072963 -1276.77722084867 378.223035775706 0.361022040943662
  566000    141.14126    35.646199   -1276.7772   -1276.7772            0    378.22304   -898.55419   0.36102204 
567000 137.37677657573 29.4751860927396 -932.436415564477 -1300.57159011641 368.135174551933 0.36625527580753
568000 140.005948330483 -58.6393348681019 -906.669257162079 -1281.84995008319 375.180692921113 0.360478635283846
  568000    140.00595   -58.639335     -1281.85     -1281.85            0    375.18069   -906.66926   0.36047864 
569000 137.810280692904 -13.2808773138751 -934.699256737101 -1303.99611318187 369.296856444774 0.366506117224419
570000 137.118281016993 56.3226690920825 -954.605123166069 -1322.04759470073 367.442471534666 0.371618652184328
  570000    137.11828    56.322669   -1322.0476   -1322.0476            0    367.44247   -954.60512   0.37161865 
571000 149.342732449624 -93.7251959285225 -856.17222998171 -1256.3731536662 400.20092368449 0.351952890615908
572000 139.367949250858 -3.13291665441759 -905.360476990159 -1278.83149300375 373.471016013588 0.361521192412884
  572000    139.36795   -3.1329167   -1278.8315   -1278.8315            0    373.47102   -905.36048   0.36152119 
573000 134.721986134666 -10.0669534743014 -915.503540795208 -1276.52454534854 361.021004553329 0.361158883758571
574000 133.557296251922 -127.510488086848 -952.312114742876 -1310.21204363866 357.899928895783 0.364769533319746
  574000     133.5573   -127.51049    -1310.212    -1310.212            0    357.89993   -952.31211   0.36476953 
575000 137.662832926959 9.40674223538383 -912.525319724128 -1281.42705327836 368.901733554234 0.361503476495137
576000 143.4526709531 -127.895394379111 -903.850886994274 -1288.26792877971 384.417041785434 0.357256351747495
  576000    143.45267   -127.89539   -1288.2679   -1288.2679            0    384.41704   -903.85089   0.35725635 
577000 134.426408163216 -26.8250315874618 -893.962846597287 -1254.19177660333 360.228930006046 0.354190112825358
578000 146.408991093889 136.80036413041 -885.377230441607 -1277.71646590627 392.339235464659 0.364684412571507
  578000    146.40899    136.80036   -1277.7165   -1277.7165            0    392.33924   -885.37723   0.36468441 
579000 146.014845298413 90.4075466198218 -885.124536645875 -1276.4075606108 391.28302396492 0.362700670269195
580000 148.720158704604 32.083071042499 -914.184354569793 -1312.71693735994 398.532582790147 0.368457553670112
  580000    148.72016    32.083071   -1312.7169   -1312.7169            0    398.53258   -914.18435   0.36845755 
581000 140.110023055813 140.843410435718 -911.358378541607 -1286.81796552423 375.459586982618 0.366444613849008
582000 144.259412086468 -0.773756338438376 -874.000561221207 -1260.57946613484 386.578904913637 0.356993572379807
  582000    144.25941  -0.77375634   -1260.5795   -1260.5795            0     386.5789   -874.00056   0.35699357 
583000 143.894785015917 -16.1507778540144 -911.389821432893 -1296.99161759781 385.601796164914 0.365384882575269
584000 147.683145249397 -93.1428799369015 -902.266106078718 -1298.01975389265 395.753647813935 0.362297654850666
  584000    147.68315    -93.14288   -1298.0198   -1298.0198            0    395.75365   -902.26611   0.36229765 
585000 134.659200292206 -66.316917867983 -932.310574357581 -1293.1633286604 360.852754302819 0.362327176565732
586000 144.073267236638 -15.0753702999927 -884.729942460187 -1270.81002604105 386.080083580861 0.358022607693424
  586000    144.07327    -15.07537     -1270.81     -1270.81            0    386.08008   -884.72994   0.35802261 
587000 144.455198875341 36.0018445323252 -892.405204410649 -1279.5087686262 387.103564215546 0.362573239874367
588000 140.234588682092 68.3082050344211 -901.80266124516 -1277.59605274493 375.793391499775 0.36210212405658
  588000    140.23459    68.308205   -1277.5961   -1277.5961            0    375.79339   -901.80266   0.36210212 
589000 139.359851149453 77.4517000001408 -942.088952573233 -1315.53826771387 373.449315140641 0.370613922615843
590000 144.098140772632 49.7491034232366 -902.646453378113 -1288.79319177315 386.146738395038 0.365505400672633
  590000    144.09814    49.749103   -1288.7932   -1288.7932            0    386.14674   -902.64645    0.3655054 
591000 143.494186768857 44.8793540740955 -902.668492727433 -1287.19678644686 384.528293719431 0.364523591723825
592000 139.627660817254 7.02921017735463 -923.132500790059 -1297.29947841529 374.166977625233 0.366032033650636
  592000    139.62766    7.0292102   -1297.2995   -1297.2995            0    374.16698    -923.1325   0.36603203 
593000 134.641429866823 -107.333273939203 -925.714394614809 -1286.51952865157 360.805134036764 0.361315009344862
594000 135.679326094045 -40.846031203061 -934.57818732408 -1298.1646219438 363.586434619723 0.364280716448346
  594000    135.67933   -40.846031   -1298.1646   -1298.1646            0    363.58643   -934.57819   0.36428072 
595000 144.676687957156 75.4066628788952 -901.134009054447 -1288.83110824605 387.697099191602 0.364224574663651
596000 136.417811082699 26.4673951712288 -865.104838315296 -1230.6702267799 365.565388464604 0.350491072886076
  596000    136.41781    26.467395   -1230.6702   -1230.6702            0    365.56539   -865.10484   0.35049107 
597000 142.94711626416 -19.0487666548323 -948.898471465249 -1331.96075396532 383.062282500075 0.372243973413585
598000 141.455009070449 57.6308728914536 -934.455237783865 -1313.51904866524 379.063810881372 0.369562072359691
  598000    141.45501    57.630873    -1313.519    -1313.519            0    379.06381   -934.45524   0.36956207 
599000 145.508316306808 -21.3725079888489 -927.79464746659 -1317.7203012603 389.925653793715 0.36971891201284
600000 138.497401753085 22.2525410101713 -920.044310702042 -1291.18247859503 371.138167892992 0.363318118833059
  600000     138.4974    22.252541   -1291.1825   -1291.1825            0    371.13817   -920.04431   0.36331812 
601000 133.494124931401 -47.9916200531406 -922.011288354867 -1279.74193401598 357.730645661118 0.359672005897
602000 135.66060262568 -81.4577826263113 -908.303359743314 -1271.83962018173 363.53626043842 0.355849808258792
  602000     135.6606   -81.457783   -1271.8396   -1271.8396            0    363.53626   -908.30336   0.35584981 
603000 137.398388583704 -74.125445939248 -882.02223054118 -1250.21531983333 368.193089292155 0.350088447362484
604000 142.46217768804 7.0377972300635 -900.12503297483 -1281.88780218149 381.762769206659 0.361669211604679
  604000    142.46218    7.0377972   -1281.8878   -1281.8878            0    381.76277   -900.12503   0.36166921 
605000 146.420078959325 84.91038593351 -934.546740204057 -1326.91568835655 392.368948152491 0.373128395400448
606000 136.365957078548 -3.38748680610661 -962.911902122137 -1328.33833491064 365.426432788506 0.373201390054371
  606000    136.36596   -3.3874868   -1328.3383   -1328.3383            0    365.42643    -962.9119   0.37320139 
607000 140.840737394698 -41.5488339259384 -921.175930438519 -1298.59364788102 377.417717442498 0.364000607607726
608000 141.190251574531 117.996838418994 -939.9243630291 -1318.2786904781 378.354327448997 0.37440067997674
  608000    141.19025    117.99684   -1318.2787   -1318.2787            0    378.35433   -939.92436   0.37440068 
609000 135.956415908725 -92.900625376751 -910.829390662999 -1275.15835622453 364.328965561533 0.357657223322291
610000 140.333316944354 35.3938580806863 -918.44756590733 -1294.50552429364 376.057958386311 0.366559490435185
  610000    140.33332    35.393858   -1294.5055   -1294.5055            0    376.05796   -918.44757   0.36655949 
611000 137.336555168111 71.8165729475511 -890.974227537663 -1259.00161884352 368.027391305859 0.358837248614073
612000 144.832673026922 34.2357595555077 -863.656285699246 -1251.77138560623 388.115099906985 0.35655731365492
  612000    144.83267     34.23576   -1251.7714   -1251.7714            0     388.1151   -863.65629   0.35655731 
613000 143.570088608462 7.75293173600524 -923.291272278284 -1308.02296381842 384.73169154014 0.367895028924501
614000 144.588010208149 -65.4823684530797 -905.971203041935 -1293.43066819216 387.459465150221 0.36292159167828
  614000    144.58801   -65.482368   -1293.4307   -1293.4307            0    387.45947    -905.9712   0.36292159 
615000 140.913974582817 -0.74796299043581 -895.196166376092 -1272.81014104418 377.613974668092 0.358935269169926
616000 143.305624091764 9.67391846750612 -905.612896281643 -1289.63588949995 384.022993218311 0.364795560480641
  616000    143.30562    9.6739185   -1289.6359   -1289.6359            0    384.02299    -905.6129   0.36479556 
617000 142.095471318159 93.5506401316681 -929.320320432176 -1310.1004088914 380.780088459226 0.371678879432622
618000 138.632970561426 105.475578619931 -923.28995676663 -1294.79141493449 371.501458167858 0.368531306492834
  618000    138.63297    105.47558   -1294.7914   -1294.7914            0    371.50146   -923.28996   0.36853131 
619000 140.430579218694 3.00008517400717 -927.014954221893 -1303.3335510162 376.318596794302 0.36521845494181
620000 145.884161584521 16.9344363258934 -908.958063727019 -1299.8908882403 390.932824513281 0.366408983625135
  620000    145.88416    16.934436   -1299.8909   -1299.8909            0    390.93282   -908.95806   0.36640898 
621000 139.625121130806 -17.1987185607055 -950.117920426772 -1324.27809233173 374.160171904957 0.369276017108841
622000 130.347464118655 85.3021426970443 -967.033508628909 -1316.33189553108 349.298386902174 0.373529433394311
  622000    130.34746    85.302143   -1316.3319   -1316.3319            0    349.29839   -967.03351   0.37352943 
623000 139.391427373353 158.016089461157 -951.955009222024 -1325.48894069293 373.533931470903 0.376879163709793
624000 142.450477049582 48.262711123022 -895.951169541996 -1277.6825839834 381.731414441403 0.362253297626013
  624000    142.45048    48.262711   -1277.6826   -1277.6826            0    381.73141   -895.95117    0.3622533 
625000 142.086790081455 32.7433654904789 -902.01291525593 -1282.76974018642 380.75682493049 0.362647758876911
626000 138.216343260873 75.1963994379225 -924.211508822555 -1294.59651071712 370.385001894567 0.367261093409309
  626000    138.21634    75.196399   -1294.5965   -1294.5965            0      370.385   -924.21151   0.36726109 
627000 131.082365869756 -29.8261729728057 -907.597536561242 -1258.86527513379 351.267738572548 0.354972221358252
628000 142.604425887991 -23.752960992522 -875.362491816173 -1257.50645038558 382.143958569403 0.354319253039301
  628000    142.60443   -23.752961   -1257.5065   -1257.5065            0    382.14396   -875.36249   0.35431925 
629000 145.810514104967 76.5175620502481 -883.779384703545 -1274.51485251348 390.735467809938 0.364465645231591
630000 142.326680620144 27.1623408917444 -939.036428984177 -1320.4361001623 381.399671178125 0.370986100872575
  630000    142.32668    27.162341   -1320.4361   -1320.4361            0    381.39967   -939.03643    0.3709861 
631000 143.775369428261 -51.2504932323278 -894.5110683602 -1279.79286081487 385.281792454667 0.35960869634883
632000 138.528044718841 -40.2696642345402 -933.528165840148 -1304.74844916654 371.22028332639 0.364350622587733
  632000    138.52804   -40.269664   -1304.7484   -1304.7484            0    371.22028   -933.52817   0.36435062 
633000 135.002280466175 -6.2007617526624 -924.51338725017 -1286.28551004363 361.772122793458 0.363456159801719
634000 141.027585979415 60.9047365167016 -924.940192069266 -1302.85861667686 377.918424607596 0.369145135427203
  634000    141.02759    60.904737   -1302.8586   -1302.8586            0    377.91842   -924.94019   0.36914514 
635000 139.365658085885 -36.8827036204065 -919.772593012999 -1293.23746928129 373.464876268295 0.36426935091922
636000 143.637009279607 48.8177653462935 -895.530421394172 -1280.4414434847 384.911022090524 0.362969474689767
  636000    143.63701    48.817765   -1280.4414   -1280.4414            0    384.91102   -895.53042   0.36296947 
637000 141.431948358702 -37.3139480357928 -856.339563970653 -1235.34157795042 379.002013979772 0.347012561957745
638000 142.70289387309 52.7257694437995 -879.896942159982 -1262.30477013865 382.40782797867 0.356126526009741
  638000    142.70289    52.725769   -1262.3048   -1262.3048            0    382.40783   -879.89694   0.35612653 
639000 142.263530358856 -22.063739579207 -944.536445605331 -1325.76688998223 381.2304443769 0.371382476874757
640000 139.666959754898 -24.5450152057805 -929.967033844077 -1304.2393227281 374.272288884021 0.366290211324053
  640000    139.66696   -24.545015   -1304.2393   -1304.2393            0    374.27229   -929.96703   0.36629021 
641000 132.798142116441 -61.3214418081593 -897.733325316223 -1253.5989122574 355.865586941172 0.351424427411485
642000 144.650882719141 56.5670059409856 -899.850754832214 -1287.47870248279 387.627947650577 0.365223118316563
  642000    144.65088    56.567006   -1287.4787   -1287.4787            0    387.62795   -899.85075   0.36522312 
643000 139.277684597664 58.2653570103511 -915.314433019767 -1288.54356248828 373.229129468514 0.364894778369648
644000 141.999895352356 21.7358930544117 -882.524332225233 -1263.04830115879 380.523968933562 0.356452542365737
  644000     141.9999    21.735893   -1263.0483   -1263.0483            0    380.52397   -882.52433   0.35645254 
645000 136.973773267601 -35.2129757169019 -895.740161030792 -1262.79538817909 367.055227148297 0.355726757389474
646000 130.10606848191 -10.3581780659872 -929.931052885933 -1278.58256025661 348.651507370681 0.361677408222985
  646000    130.10607   -10.358178   -1278.5826   -1278.5826            0    348.65151   -929.93105   0.36167741 
647000 138.981221234128 -9.0387685818293 -907.097314960996 -1279.53199725435 372.434682293349 0.36125825033955
648000 136.764122627525 -121.653846591623 -921.451398028649 -1287.94481424424 366.493416215595 0.359607980243413
  648000    136.76412   -121.65385   -1287.9448   -1287.9448            0    366.49342    -921.4514   0.35960798 
649000 136.391947033618 32.2958311996682 -899.837967299819 -1265.33404662455 365.496079324733 0.359305642253248
650000 137.834447508032 63.5688339034944 -929.962332100928 -1299.32394952589 369.361617424958 0.368166264125501
  650000    137.83445    63.568834   -1299.3239   -1299.3239            0    369.36162   -929.96233   0.36816626 
651000 140.154174755303 20.3209000819929 -908.885275928152 -1284.46317834955 375.577902421396 0.362145241942761
652000 142.055118897867 87.1255915439534 -888.817554118503 -1269.48950825068 380.671954132172 0.362066309708642
  652000    142.05512    87.125592   -1269.4895   -1269.4895            0    380.67195   -888.81755   0.36206631 
653000 132.501783942702 -46.9730497232099 -941.993904815908 -1297.06532646409 355.071421648182 0.364246065383353
654000 138.923742315586 0.949303872164985 -908.129284594727 -1280.40993785757 372.280653262841 0.35981522420527
  654000    138.92374   0.94930387   -1280.4099   -1280.4099            0    372.28065   -908.12928   0.35981522 
655000 140.085272271208 -96.42887591809 -912.238876246482 -1287.63213735774 375.393261111259 0.359448688934861
[...]
3091000 142.536435943631 51.623533821082 -953.164023191305 -1335.12578582731 381.961762636009 0.375641081369286
3092000 132.994946377819 -80.2861152956021 -908.491801680688 -1264.88477449392 356.39297281323 0.355654617255447
 3092000    132.99495   -80.286115   -1264.8848   -1264.8848            0    356.39297    -908.4918   0.35565462 
3093000 139.846044922671 60.2562699114987 -932.131494557814 -1306.88368660408 374.752192046266 0.369707858706318
3094000 140.97034652796 -30.0345224338641 -925.402466703615 -1303.16750399221 377.765037288592 0.365376462371239
 3094000    140.97035   -30.034522   -1303.1675   -1303.1675            0    377.76504   -925.40247   0.36537646 
3095000 140.397766950735 34.0394822407903 -924.303287053245 -1300.5339552304 376.230668177153 0.366633505322738
3096000 146.172927806752 120.771931751277 -901.215460081239 -1292.92210536886 391.706645287618 0.366162001137629
 3096000    146.17293    120.77193   -1292.9221   -1292.9221            0    391.70665   -901.21546     0.366162 
3097000 138.428638749812 -29.1884132952258 -896.669882595012 -1267.62378295135 370.953900356341 0.356924753822175
3098000 134.553215634555 11.2176842122551 -952.101220648347 -1312.66996275189 360.568742103545 0.368368947795552
 3098000    134.55322    11.217684     -1312.67     -1312.67            0    360.56874   -952.10122   0.36836895 
3099000 140.130838589962 156.447617449352 -904.615823564593 -1280.13119093811 375.515367373515 0.366599818218626
3100000 145.870026038033 152.471772904014 -884.115951501694 -1275.01089630922 390.894944807528 0.364608259431295
 3100000    145.87003    152.47177   -1275.0109   -1275.0109            0    390.89494   -884.11595   0.36460826 
3101000 145.047533218634 33.5403673230907 -887.977021950331 -1276.66789307682 388.690871126485 0.361722010123763
3102000 140.513600088641 1.05192384856291 -897.314743740305 -1273.85581556431 376.541071824005 0.360476104802502
 3102000     140.5136    1.0519238   -1273.8558   -1273.8558            0    376.54107   -897.31474    0.3604761 
3103000 141.314828994521 -60.8188239014086 -866.041550510108 -1244.72971408044 378.68816357033 0.350655319153954
3104000 141.611802625573 29.8060125180845 -927.39511565223 -1306.8790937862 379.483978133966 0.369984117846924
 3104000     141.6118    29.806013   -1306.8791   -1306.8791            0    379.48398   -927.39512   0.36998412 
3105000 140.634940891405 -85.7056785998903 -913.018056932072 -1289.88429155811 376.86623462604 0.360588903392973
3106000 138.273787909069 -31.9742160231981 -950.603474828974 -1321.14241391815 370.538939089178 0.370330744584547
 3106000    138.27379   -31.974216   -1321.1424   -1321.1424            0    370.53894   -950.60347   0.37033074 
3107000 146.751133696412 83.0228280652354 -919.090668715651 -1312.34676021552 393.256091499872 0.370921830644337
3108000 142.876717014379 -16.994485230206 -915.174507760406 -1298.04813799514 382.873630234733 0.364209300571503
 3108000    142.87672   -16.994485   -1298.0481   -1298.0481            0    382.87363   -915.17451    0.3642093 
3109000 144.516409148855 16.0092514160975 -914.961968446536 -1302.22956078449 387.267592337956 0.366421784632281
3110000 136.94105937153 68.2358295985949 -941.021522531136 -1307.98908467418 366.967562143042 0.36943503338611
 3110000    136.94106     68.23583   -1307.9891   -1307.9891            0    366.96756   -941.02152   0.36943503 
3111000 143.759212577157 13.628481793527 -891.882378942131 -1277.12087510357 385.238496161439 0.361252853165031
3112000 137.836393967237 -33.488402889237 -912.12709344328 -1281.49392688886 369.366833445577 0.360388399807881
 3112000    137.83639   -33.488403   -1281.4939   -1281.4939            0    369.36683   -912.12709    0.3603884 
3113000 138.957986351578 21.7858389319953 -889.060042591816 -1261.43246124966 372.372418657847 0.355881193956096
3114000 142.368982003302 13.4828663973191 -915.467929133278 -1296.98095736826 381.513028234978 0.364715881135159
 3114000    142.36898    13.482866    -1296.981    -1296.981            0    381.51303   -915.46793   0.36471588 
3115000 141.467975681967 65.8248142969343 -902.225253302111 -1281.32381143781 379.0985581357 0.363773911309931
3116000 145.658408554578 -56.7087808127721 -870.972344445904 -1261.30020767566 390.327863229755 0.354100000895764
 3116000    145.65841   -56.708781   -1261.3002   -1261.3002            0    390.32786   -870.97234       0.3541 
3117000 139.335799591891 79.6329795084302 -897.406188273651 -1270.79105129537 373.384863021716 0.35973852465457
3118000 137.162740200807 35.9504335185187 -932.116459266201 -1299.67807022022 367.561610954017 0.366744473733964
 3118000    137.16274    35.950434   -1299.6781   -1299.6781            0    367.56161   -932.11646   0.36674447 
3119000 140.641493409028 113.579772047497 -920.734738319832 -1297.61853204341 376.883793723574 0.37004942361121
3120000 140.66123587196 89.954314651557 -919.813993938033 -1296.75069249181 376.936698553772 0.366878553877158
 3120000    140.66124    89.954315   -1296.7507   -1296.7507            0     376.9367   -919.81399   0.36687855 
3121000 135.659933212426 12.2080267247722 -934.480703003344 -1298.01516958278 363.534466579435 0.36630794395809
3122000 143.515726508199 -95.6308570002722 -899.153317418545 -1283.73933221646 384.586014797914 0.358921840718074
 3122000    143.51573   -95.630857   -1283.7393   -1283.7393            0    384.58601   -899.15332   0.35892184 
3123000 142.020311468582 -75.4434573085223 -906.403864229894 -1286.98254321488 380.578678984981 0.359015846130852
3124000 146.026388500035 -22.6114916805025 -866.747729696334 -1258.06168653542 391.313956839091 0.355457687770805
 3124000    146.02639   -22.611492   -1258.0617   -1258.0617            0    391.31396   -866.74773   0.35545769 
3125000 137.447497038949 21.1482023532785 -934.071316494799 -1302.39600408322 368.324687588419 0.365697023468274
3126000 144.548572895094 -49.01526221677 -909.889352623137 -1297.24313570331 387.353783080169 0.362389235291394
 3126000    144.54857   -49.015262   -1297.2431   -1297.2431            0    387.35378   -909.88935   0.36238924 
3127000 142.355397998882 127.274587215797 -917.683070751575 -1299.15969727468 381.476626523109 0.368973034254813
3128000 139.381457928367 11.6695741735344 -946.713728940207 -1320.22094480851 373.5072158683 0.371354717385455
 3128000    139.38146    11.669574   -1320.2209   -1320.2209            0    373.50722   -946.71373   0.37135472 
3129000 135.829577453606 -72.7344590576083 -914.117242994259 -1278.10631342957 363.989070435306 0.358496248875532
3130000 139.379109723333 47.9671024493849 -965.274207480239 -1338.77513075024 373.500923270003 0.377241803006404
 3130000    139.37911    47.967102   -1338.7751   -1338.7751            0    373.50092   -965.27421    0.3772418 
3131000 140.123999053248 -40.8763589320986 -905.115937303746 -1280.61297644082 375.497039137078 0.360159297916928
3132000 136.712935743481 62.5207885356525 -937.639455811633 -1303.99570406506 366.356248253426 0.36829977776276
 3132000    136.71294    62.520789   -1303.9957   -1303.9957            0    366.35625   -937.63946   0.36829978 
3133000 140.718607988692 -71.659004654278 -916.897233693743 -1293.98767507606 377.090441382318 0.360197246289809
3134000 133.668364853895 -34.9032062700832 -938.247171249174 -1296.44473603505 358.197564785877 0.36476916655897
 3134000    133.66836   -34.903206   -1296.4447   -1296.4447            0    358.19756   -938.24717   0.36476917 
3135000 135.73280631205 -18.0182359577255 -932.428207785257 -1296.15795592478 363.729748139527 0.364279000102259
3136000 145.49388061719 63.9021658063762 -895.698636705655 -1285.5856064856 389.886969779942 0.364173582324548
 3136000    145.49388    63.902166   -1285.5856   -1285.5856            0    389.88697   -895.69864   0.36417358 
3137000 139.147956700408 71.6714227730643 -907.844501471146 -1280.72599283596 372.881491364818 0.364199003478705
3138000 140.174416963856 30.086864371983 -925.665785701845 -1301.29793214588 375.632146444039 0.36552872692158
 3138000    140.17442    30.086864   -1301.2979   -1301.2979            0    375.63215   -925.66579   0.36552873 
3139000 144.10134501916 87.902318282075 -910.994797952686 -1297.1501229217 386.155324969015 0.3687100015872
3140000 139.388521663399 -32.8864829586657 -902.099393349072 -1275.62553824885 373.526144899783 0.360019333914461
 3140000    139.38852   -32.886483   -1275.6255   -1275.6255            0    373.52614   -902.09939   0.36001933 
3141000 145.989947035262 22.327088739547 -892.769885077228 -1283.98618796541 391.216302888186 0.362320896964407
3142000 135.257292377107 -24.9100320497908 -940.38919995851 -1302.84469047018 362.455490511668 0.366518650809141
 3142000    135.25729   -24.910032   -1302.8447   -1302.8447            0    362.45549    -940.3892   0.36651865 
3143000 139.691345409682 49.8392135302514 -877.905186022239 -1252.24282232162 374.337636299385 0.356268229480428
3144000 145.608940208411 114.298691680648 -925.920046847296 -1316.11534736372 390.195300516428 0.372370286903192
 3144000    145.60894    114.29869   -1316.1153   -1316.1153            0     390.1953   -925.92005   0.37237029 
3145000 134.937814620219 -14.4456316883022 -922.158010021558 -1283.7573805781 361.599370556543 0.361941229413632
3146000 133.329654097928 -5.46510600485936 -952.547984812393 -1309.83789004781 357.289905235416 0.368394834785045
 3146000    133.32965    -5.465106   -1309.8379   -1309.8379            0    357.28991   -952.54798   0.36839483 
3147000 148.161299755454 -33.9368146179396 -911.850891695138 -1308.88587320271 397.034981507576 0.366414980943036
3148000 135.711517074761 9.67616109195742 -892.254650775788 -1255.92734911927 363.672698343478 0.355161123609747
 3148000    135.71152    9.6761611   -1255.9273   -1255.9273            0     363.6727   -892.25465   0.35516112 
3149000 139.321142755891 -4.23367706282319 -905.82112641469 -1279.16671280601 373.345586391315 0.36176609425622
3150000 141.467144254674 -33.9899228482279 -934.929679156745 -1314.02600927662 379.096330119879 0.368469138576678
 3150000    141.46714   -33.989923    -1314.026    -1314.026            0    379.09633   -934.92968   0.36846914 
3151000 145.998458807838 78.8488501440495 -864.135673419606 -1255.37478571533 391.239112295725 0.357972468748761
3152000 136.594668186414 -20.4440332478597 -929.196543047059 -1295.23586402318 366.039320976125 0.3650591740596
 3152000    136.59467   -20.444033   -1295.2359   -1295.2359            0    366.03932   -929.19654   0.36505917 
3153000 134.173412644093 -15.4650476053699 -900.133384412596 -1259.68435012282 359.550965710225 0.353276034083378
3154000 140.072571265619 -44.3995498224611 -930.074849177468 -1305.43407479142 375.35922561395 0.366114675417331
 3154000    140.07257    -44.39955   -1305.4341   -1305.4341            0    375.35923   -930.07485   0.36611468 
3155000 141.816342657345 60.5919618426475 -940.318328303085 -1320.35042222617 380.032093923084 0.371940258276516
3156000 142.645511853376 74.2376299078374 -941.860926439982 -1324.11498505261 382.254058612624 0.374029170200939
 3156000    142.64551     74.23763    -1324.115    -1324.115            0    382.25406   -941.86093   0.37402917 
3157000 141.236014274996 30.3218682511448 -895.560238375376 -1274.03719834017 378.476959964794 0.359522993860657
3158000 143.356227321818 43.5079811306828 -893.248765097262 -1277.40736223199 384.158597134733 0.360630113017664
 3158000    143.35623    43.507981   -1277.4074   -1277.4074            0     384.1586   -893.24877   0.36063011 
3159000 140.018845313005 2.09240421367883 -877.559676977634 -1252.7749305649 375.215253587262 0.355029261366852
3160000 136.200765883485 63.5713007552158 -919.861831545408 -1284.84559352052 364.983761975108 0.364075563360318
 3160000    136.20077    63.571301   -1284.8456   -1284.8456            0    364.98376   -919.86183   0.36407556 
3161000 139.000712622658 -16.6898572756761 -921.968890895628 -1294.45580520299 372.48691430736 0.363605331253912
3162000 141.710968085082 35.8966273380748 -920.80091870618 -1300.55063530523 379.749716599053 0.366634120078111
 3162000    141.71097    35.896627   -1300.5506   -1300.5506            0    379.74972   -920.80092   0.36663412 
3163000 143.568011292188 -26.7269515695668 -899.974105627821 -1284.70023048334 384.726124855523 0.361330097379897
3164000 139.176340676191 8.15661278466929 -933.296770020306 -1306.25432329413 372.957553273823 0.367532684557422
 3164000    139.17634    8.1566128   -1306.2543   -1306.2543            0    372.95755   -933.29677   0.36753268 
3165000 145.665281719302 31.8429288545882 -872.457529525988 -1262.80381110678 390.346281580794 0.35818721203595
3166000 141.857344462944 39.9526705113755 -954.775123682992 -1334.91709212226 380.141968439269 0.374951278965717
 3166000    141.85734    39.952671   -1334.9171   -1334.9171            0    380.14197   -954.77512   0.37495128 
3167000 142.743767795113 -14.5338790754201 -899.977386149282 -1282.49474594835 382.517359799068 0.360111871755058
3168000 137.675610243929 121.372289069787 -904.056439540509 -1272.99241308734 368.935973546832 0.364167092762102
 3168000    137.67561    121.37229   -1272.9924   -1272.9924            0    368.93597   -904.05644   0.36416709 
3169000 142.898523155661 102.244294080555 -883.051843404427 -1265.98390860777 382.932065203344 0.358626511494397
3170000 147.577739573027 22.209893792158 -922.853618496449 -1318.32480563518 395.47118713873 0.371092742953597
 3170000    147.57774    22.209894   -1318.3248   -1318.3248            0    395.47119   -922.85362   0.37109274 
3171000 136.432407272322 39.3809720695644 -961.161327632115 -1326.7658302101 365.604502577985 0.372877076927587
3172000 144.053876610195 136.191788069312 -925.219299829054 -1311.24742141293 386.028121583876 0.372677213394345
 3172000    144.05388    136.19179   -1311.2474   -1311.2474            0    386.02812    -925.2193   0.37267721 
3173000 144.391479314251 49.994442559003 -915.421915523141 -1302.35472735732 386.932811834182 0.368700018650917
3174000 137.682818999763 12.1374955328107 -952.399869710159 -1321.35516090771 368.955291197556 0.370652770110115
 3174000    137.68282    12.137496   -1321.3552   -1321.3552            0    368.95529   -952.39987   0.37065277 
3175000 132.835145658035 39.8384202327639 -939.482890101991 -1295.44763721844 355.964747116446 0.367695286951057
3176000 139.159746497285 -28.0323413829309 -915.782829307442 -1288.69591435963 372.913085052188 0.361289780145999
 3176000    139.15975   -28.032341   -1288.6959   -1288.6959            0    372.91309   -915.78283   0.36128978 
3177000 142.246673418829 -65.2871947234595 -912.040210796248 -1293.22548281786 381.185272021616 0.362208588830619
3178000 140.605824228825 68.0940709880396 -916.017427381261 -1292.80563668215 376.788209300884 0.366171072004181
 3178000    140.60582    68.094071   -1292.8056   -1292.8056            0    376.78821   -916.01743   0.36617107 
3179000 138.448824607247 34.9635619259327 -919.45895455918 -1290.46694793135 371.007993372171 0.364966707046183
3180000 141.602670607503 -83.0917419266619 -918.398558179099 -1297.85806480376 379.459506624664 0.362482401445312
 3180000    141.60267   -83.091742   -1297.8581   -1297.8581            0    379.45951   -918.39856    0.3624824 
3181000 135.862324137796 28.9066859169814 -910.525699255086 -1274.60252255955 364.076823304465 0.359545737707171
3182000 135.866296423526 -54.0668970849321 -909.490961125447 -1273.57842915558 364.087468030137 0.358158601210962
 3182000     135.8663   -54.066897   -1273.5784   -1273.5784            0    364.08747   -909.49096    0.3581586 
3183000 143.609315883697 25.9722743226998 -918.889820923446 -1303.72663168516 384.836810761715 0.368078262382816
3184000 140.700089934068 47.7682115264298 -907.390712696408 -1284.43153035453 377.040817658124 0.364640068495802
 3184000    140.70009    47.768212   -1284.4315   -1284.4315            0    377.04082   -907.39071   0.36464007 
3185000 134.301295992823 -56.7541779891352 -912.750348914827 -1272.64400980309 359.893660888265 0.357578829629891
3186000 139.651806271829 120.524174769961 -918.126768734766 -1292.35845009928 374.231681364512 0.368694148979099
 3186000    139.65181    120.52417   -1292.3585   -1292.3585            0    374.23168   -918.12677   0.36869415 
3187000 145.936959803196 -23.6572833153588 -893.932844225904 -1285.00715467249 391.074310446583 0.362094696995369
3188000 139.777218430483 26.3043094295492 -914.597097340205 -1289.16485171551 374.567754375308 0.363240513177032
 3188000    139.77722    26.304309   -1289.1649   -1289.1649            0    374.56775    -914.5971   0.36324051 
3189000 137.787998303907 56.0697137449873 -907.766660692406 -1277.0038059446 369.237145252189 0.360972964585912
3190000 143.359345105789 -104.991487174045 -906.347801790802 -1290.51475380163 384.166952010826 0.360062765024775
 3190000    143.35935   -104.99149   -1290.5148   -1290.5148            0    384.16695    -906.3478   0.36006277 
3191000 138.216809297884 8.07283668202791 -881.902516673214 -1252.28876742964 370.386250756426 0.352742390910415
3192000 146.355852834592 56.461085763928 -891.829185189067 -1284.02602349717 392.196838308101 0.36210729169058
 3192000    146.35585    56.461086    -1284.026    -1284.026            0    392.19684   -891.82919   0.36210729 
3193000 138.540014866634 22.5926274346048 -883.854932486734 -1255.10729279554 371.252360308809 0.355198940506856
3194000 138.600803755868 45.7585137448204 -897.489360929447 -1268.90462015689 371.41525922744 0.359577463193673
 3194000     138.6008    45.758514   -1268.9046   -1268.9046            0    371.41526   -897.48936   0.35957746 
3195000 144.681658740535 -16.9081619070317 -886.38304180407 -1274.09346144366 387.710419639587 0.358667748988299
3196000 148.773599941995 24.7614763623132 -890.159945004544 -1288.83573685626 398.675791851717 0.363281893836719
 3196000     148.7736    24.761476   -1288.8357   -1288.8357            0    398.67579   -890.15995   0.36328189 
3197000 145.404065353381 10.0796422255591 -879.715315242708 -1269.36160272799 389.646287485277 0.357874067558892
3198000 137.834126369077 26.3487781661255 -905.143548101961 -1274.50430495537 369.36075685341 0.360310646801226
 3198000    137.83413    26.348778   -1274.5043   -1274.5043            0    369.36076   -905.14355   0.36031065 
3199000 141.277388080649 85.4193457902356 -907.228866510466 -1285.81669785793 378.587831347465 0.365063127950498
3200000 138.175818634597 -13.566430358653 -925.029891797987 -1295.30629789682 370.276406098833 0.364813586609948
 3200000    138.17582    -13.56643   -1295.3063   -1295.3063            0    370.27641   -925.02989   0.36481359 
Loop time of 606.384 on 36 procs for 3000000 steps with 900 atoms

Performance: 854.904 ns/day, 0.028 hours/ns, 4947.361 timesteps/s
99.7% CPU use with 36 MPI tasks x 1 OpenMP threads

MPI task timing breakdown:
Section |  min time  |  avg time  |  max time  |%varavg| %total
---------------------------------------------------------------
Pair    | 169.84     | 171.86     | 173.9      |   8.2 | 28.34
Bond    | 1.3215     | 1.5527     | 2.1242     |  10.7 |  0.26
Neigh   | 13.569     | 13.656     | 13.748     |   1.1 |  2.25
Comm    | 289.65     | 292.45     | 295.84     |   8.8 | 48.23
Output  | 0.22722    | 0.22909    | 0.28245    |   1.9 |  0.04
Modify  | 101.35     | 103.81     | 106.79     |  11.8 | 17.12
Other   |            | 22.83      |            |       |  3.77

Nlocal:    25 ave 30 max 20 min
Histogram: 1 1 4 2 3 11 7 3 2 2
Nghost:    1245.33 ave 1256 max 1233 min
Histogram: 2 2 1 5 7 6 2 6 3 2
Neighs:    3201.5 ave 3897 max 2451 min
Histogram: 1 1 4 3 5 10 7 3 0 2

Total # of neighbors = 115254
Ave neighs/atom = 128.06
Ave special neighs/atom = 0
Neighbor list builds = 53380
Dangerous builds = 0
unfix integrator
write_restart production.restart
undump traj1
Total wall time: 0:10:06
