LAMMPS (12 Dec 2018)
OMP_NUM_THREADS environment is not set. Defaulting to 1 thread. (../comm.cpp:87)
  using 1 OpenMP thread(s) per MPI task
# Lammps script to read in mBuild topologies and perform energy minimization
# Initialization
units           real
boundary        p p p
atom_style      full

# Assume ff info is included in data file
pair_style     lj/cut/coul/cut ${rcut} # read in from job.sp.r_cut
pair_style     lj/cut/coul/cut 14.0 
bond_style  none
angle_style none
dihedral_style  none
read_restart equilibrated_npt.restart
  restoring atom style full from restart
  triclinic box = (-0.268709 -0.268709 -0.268709) to (40.2487 40.2487 40.2487) with tilt (0 0 0)
  4 by 3 by 3 MPI processor grid
  restoring pair style lj/cut/coul/cut from restart
  restoring bond style harmonic from restart
  restoring angle style harmonic from restart
  restoring dihedral style opls from restart
  900 atoms
  0 = max # of 1-2 neighbors
  0 = max # of 1-3 neighbors
  0 = max # of 1-4 neighbors
  1 = max # of special neighbors

pair_modify shift no  #TODO: Look to make sure this shift is okay

neighbor        2.5 bin #skin cutoff

timestep 2.0
thermo 2000
thermo_style custom step temp press pe epair emol ke etotal density

variable tsample equal ${T} #kelvin, modified by job.sp.temperature
variable tsample equal 140.0 
variable psample equal ${P}/101.325 #kPa to atm modified by job.sp.pressure
variable psample equal 1318.0/101.325 
# ________________________________________________________________________________________

# Production
variable startstep equal step
variable t equal temp
variable pressure equal press
variable e equal etotal
variable p equal pe
variable k equal ke
variable d equal density
variable filename string "prlog.txt"
fix output_data all print 1000 "${startstep} ${t} ${pressure} $e $p $k $d" file ${filename} title "step temp press etotal pe ke density"
fix output_data all print 1000 "${startstep} ${t} ${pressure} $e $p $k $d" file prlog.txt title "step temp press etotal pe ke density"
dump traj1 all dcd 10000 prod.dcd
fix integrator all npt temp ${tsample} ${tsample} 100.0 iso ${psample} ${psample} 1000.0 pchain 10
fix integrator all npt temp 140 ${tsample} 100.0 iso ${psample} ${psample} 1000.0 pchain 10
fix integrator all npt temp 140 140 100.0 iso ${psample} ${psample} 1000.0 pchain 10
fix integrator all npt temp 140 140 100.0 iso 13.007648655317 ${psample} 1000.0 pchain 10
fix integrator all npt temp 140 140 100.0 iso 13.007648655317 13.007648655317 1000.0 pchain 10
fix zeromom all momentum 100 linear 1 1 1 rescale
run 3000000
Neighbor list info ...
  update every 1 steps, delay 10 steps, check yes
  max neighbors/atom: 2000, page size: 100000
  master list distance cutoff = 16.5
  ghost atom cutoff = 16.5
  binsize = 8.25, bins = 5 5 5
  1 neighbor lists, perpetual/occasional/extra = 1 0 0
  (1) pair lj/cut/coul/cut, perpetual
      attributes: half, newton on
      pair build: half/bin/newton/tri
      stencil: half/bin/3d/newton/tri
      bin: standard
Per MPI rank memory allocation (min/avg/max) = 5.742 | 5.792 | 5.995 Mbytes
Step Temp Press PotEng E_pair E_mol KinEng TotEng Density 
  200000     138.5412   -15.242028   -1275.5495   -1275.5495            0    371.25554   -904.29401   0.36045567 
201000 134.910832288946 -83.8237858727581 -926.157586417947 -1287.68465111988 361.527064701937 0.360768283618858
202000 137.877474960491 -98.1612335261051 -912.401146519067 -1281.8780666838 369.476920164738 0.358756103253295
  202000    137.87747   -98.161234   -1281.8781   -1281.8781            0    369.47692   -912.40115    0.3587561 
203000 135.742757824756 39.1012262442921 -903.542035477435 -1267.29845116557 363.756415688134 0.359544982410343
204000 144.962261294121 -6.1263815878243 -866.271619786994 -1254.73398362427 388.462363837281 0.353220001914827
  204000    144.96226   -6.1263816    -1254.734    -1254.734            0    388.46236   -866.27162      0.35322 
205000 138.418596451352 -60.5551594123346 -887.083777922975 -1258.01076744774 370.926989524765 0.353971889426145
206000 138.209826878122 -8.62428161606173 -912.603951138786 -1282.97149076818 370.367539629393 0.361240123206539
  206000    138.20983   -8.6242816   -1282.9715   -1282.9715            0    370.36754   -912.60395   0.36124012 
207000 141.951429274071 -1.55143435475903 -925.48795120904 -1305.88204325486 380.394092045822 0.366949493961669
208000 142.718630174888 -11.6004574098884 -898.137439538437 -1280.58743684407 382.449997305637 0.360984763092373
  208000    142.71863   -11.600457   -1280.5874   -1280.5874            0       382.45   -898.13744   0.36098476 
209000 140.190873851432 27.0196329135961 -944.761642327096 -1320.43788908657 375.676246759473 0.37080533854981
210000 144.448263487083 4.75834822697256 -875.606572083335 -1262.69155120444 387.084979121103 0.354845098020783
  210000    144.44826    4.7583482   -1262.6916   -1262.6916            0    387.08498   -875.60657    0.3548451 
211000 144.774558467821 25.9303904508362 -894.671984465224 -1282.63135198503 387.959367519809 0.362003560598272
212000 143.432838749404 46.179710222716 -894.753065409925 -1279.11696188251 384.363896472584 0.361600690488169
  212000    143.43284     46.17971    -1279.117    -1279.117            0     384.3639   -894.75307   0.36160069 
213000 135.158987032868 27.2062694439614 -910.690952053124 -1272.88300899208 362.192056938959 0.361051268375118
214000 142.447098137098 31.8543247351913 -920.113716209701 -1301.83607601634 381.722359806639 0.365530373116331
  214000     142.4471    31.854325   -1301.8361   -1301.8361            0    381.72236   -920.11372   0.36553037 
215000 138.54788347354 64.8819580659308 -912.706311583597 -1283.97975777787 371.273446194276 0.364216914999959
216000 141.563373123638 52.7523858150155 -898.728547254466 -1278.0827465161 379.354199261638 0.361689829031871
  216000    141.56337    52.752386   -1278.0827   -1278.0827            0     379.3542   -898.72855   0.36168983 
217000 143.968994189091 42.0146544333368 -889.302490424908 -1275.10314849065 385.800658065744 0.359900306600574
218000 141.458851693919 -72.2878146359535 -896.302758547471 -1275.37686669231 379.074108144834 0.357306375321364
  218000    141.45885   -72.287815   -1275.3769   -1275.3769            0    379.07411   -896.30276   0.35730638 
219000 144.111593173373 40.7938156366972 -872.913010878451 -1259.09579832063 386.182787442179 0.357153062275187
220000 139.301126887781 34.9644084380995 -945.76084549074 -1319.05279439482 373.291948904077 0.370582714030867
  220000    139.30113    34.964408   -1319.0528   -1319.0528            0    373.29195   -945.76085   0.37058271 
221000 136.802647144021 67.3777214381023 -922.998347759408 -1289.59499998009 366.596652220678 0.365472497770907
222000 139.996979505692 13.4511224451747 -935.483658656409 -1310.64031738512 375.15665872871 0.36694758642037
  222000    139.99698    13.451122   -1310.6403   -1310.6403            0    375.15666   -935.48366   0.36694759 
223000 146.183688138549 -3.39025754379674 -916.081100600525 -1307.81658086828 391.735480267759 0.366613824861401
224000 145.673311314787 25.8793471842487 -924.160391531449 -1314.52819040657 390.367798875123 0.369127655652481
  224000    145.67331    25.879347   -1314.5282   -1314.5282            0     390.3678   -924.16039   0.36912766 
225000 138.028922180846 -46.5276133168097 -920.330864420561 -1290.21362500674 369.882760586174 0.361073230306744
226000 140.440317889918 -22.6697789732817 -925.198072335927 -1301.54276631725 376.344693981325 0.364952469568312
  226000    140.44032   -22.669779   -1301.5428   -1301.5428            0    376.34469   -925.19807   0.36495247 
227000 138.701229377794 7.39750028558823 -917.068127873025 -1288.75250248356 371.684374610539 0.362598176369159
228000 137.512002483346 -12.0042122506745 -891.328976435806 -1259.82652237499 368.497545939186 0.356663414815502
  228000      137.512   -12.004212   -1259.8265   -1259.8265            0    368.49755   -891.32898   0.35666341 
229000 142.736900157397 -51.0595493320214 -897.465722203494 -1279.96467846251 382.498956259018 0.360510831509548
230000 139.87999572179 -12.4389118553244 -934.029961723668 -1308.87313336395 374.843171640281 0.366815051644935
  230000       139.88   -12.438912   -1308.8731   -1308.8731            0    374.84317   -934.02996   0.36681505 
231000 140.016835523231 70.7173890168775 -949.347438391359 -1324.55730624802 375.209867856664 0.374672859889675
232000 143.241681776846 28.6867549212571 -889.342479790082 -1273.19412370285 383.851643912772 0.359640847711558
  232000    143.24168    28.686755   -1273.1941   -1273.1941            0    383.85164   -889.34248   0.35964085 
233000 135.109912565488 85.4422643946935 -933.335954612464 -1295.39650433408 362.060549721615 0.367396421437632
234000 142.738916548531 -27.9842630794762 -897.813658971279 -1280.31801865088 382.5043596796 0.358887855963336
  234000    142.73892   -27.984263    -1280.318    -1280.318            0    382.50436   -897.81366   0.35888786 
235000 144.874100676945 7.51867340597729 -898.415779953327 -1286.64189553234 388.226115579012 0.362614137155952
236000 140.514445076283 71.4292060391914 -919.354746875293 -1295.89808305344 376.543336178148 0.36718436960111
  236000    140.51445    71.429206   -1295.8981   -1295.8981            0    376.54334   -919.35475   0.36718437 
237000 143.299600551265 -20.4427409174103 -884.5391620732 -1268.54601371949 384.006851646291 0.357457715431772
238000 137.405850230007 -32.6913544269665 -923.452382463081 -1291.66546708875 368.213084625664 0.361690257568268
  238000    137.40585   -32.691354   -1291.6655   -1291.6655            0    368.21308   -923.45238   0.36169026 
239000 143.732867758271 85.4300620359339 -877.935613555025 -1263.10351223455 385.167898679529 0.35943043634888
240000 140.059003763374 -38.3332633148616 -935.59316886041 -1310.91603698417 375.322868123758 0.365909340193248
  240000      140.059   -38.333263    -1310.916    -1310.916            0    375.32287   -935.59317   0.36590934 
241000 137.241816015423 90.7118460272127 -923.631425376933 -1291.4049396056 367.773514228662 0.365364168369007
242000 142.094209661133 88.4467097637353 -895.041740488354 -1275.81844802439 380.776707536037 0.361742935733474
  242000    142.09421     88.44671   -1275.8184   -1275.8184            0    380.77671   -895.04174   0.36174294 
243000 140.632231143403 -10.9425825095818 -908.668039008291 -1285.52701219191 376.858973183615 0.36146380459928
244000 145.547472326251 -49.2870677912857 -922.512539289341 -1312.54312135705 390.030582067705 0.366807489556252
  244000    145.54747   -49.287068   -1312.5431   -1312.5431            0    390.03058   -922.51254   0.36680749 
245000 137.562848014715 -5.47923030322088 -935.43223539539 -1304.06603455752 368.633799162128 0.367542896499241
246000 142.122802363856 49.9831412920793 -903.561834873651 -1284.41516365434 380.853328780691 0.362142453230007
  246000     142.1228    49.983141   -1284.4152   -1284.4152            0    380.85333   -903.56183   0.36214245 
247000 138.801375736956 -41.7680159125322 -898.107200245474 -1270.05994188521 371.952741639738 0.357259206378628
248000 139.829771530528 26.779881161605 -956.325107286815 -1331.03369073921 374.708583452393 0.373413242924538
  248000    139.82977    26.779881   -1331.0337   -1331.0337            0    374.70858   -956.32511   0.37341324 
249000 140.260276026983 -11.9502937192409 -911.998548483888 -1287.8607756008 375.862227116908 0.362021014617057
250000 136.412005268676 -84.5309496701232 -937.068520630142 -1302.61835097487 365.549830344724 0.364363749216132
  250000    136.41201    -84.53095   -1302.6184   -1302.6184            0    365.54983   -937.06852   0.36436375 
251000 138.737174190185 9.75215943185319 -927.424141581294 -1299.20483923939 371.780697658099 0.366559501082064
252000 141.306336477866 74.6801250189603 -949.240029112039 -1327.90543487585 378.665405763811 0.375694779293594
  252000    141.30634    74.680125   -1327.9054   -1327.9054            0    378.66541   -949.24003   0.37569478 
253000 140.073830567971 33.9018310970579 -904.381283755069 -1279.74388398227 375.362600227205 0.36274302565784
254000 140.33166409147 -21.8327716760688 -899.198608371271 -1275.25213752799 376.053529156714 0.359646155573593
  254000    140.33166   -21.832772   -1275.2521   -1275.2521            0    376.05353   -899.19861   0.35964616 
255000 139.216743199019 -2.17212884564457 -897.68917021412 -1270.75499207718 373.065821863058 0.359480428185541
256000 142.798302761233 -26.0300332337455 -882.676310186393 -1265.33980996466 382.663499778269 0.357201528571817
  256000     142.7983   -26.030033   -1265.3398   -1265.3398            0     382.6635   -882.67631   0.35720153 
257000 143.827907022941 147.131569033429 -910.799445245408 -1296.22202522669 385.422579981278 0.368699785109217
258000 135.63228940132 173.241693546035 -920.961239016202 -1284.42162714162 363.460388125415 0.365628752178356
  258000    135.63229    173.24169   -1284.4216   -1284.4216            0    363.46039   -920.96124   0.36562875 
259000 137.211162749685 -98.8272005942901 -927.753758871447 -1295.44513006535 367.691371193906 0.361854618493776
260000 147.25849188868 25.9509754880371 -892.926034287076 -1287.54171800717 394.61568372009 0.363014634608793
  260000    147.25849    25.950975   -1287.5417   -1287.5417            0    394.61568   -892.92603   0.36301463 
261000 143.334269310999 -62.6988754308842 -914.79471867391 -1298.89447386791 384.099755193997 0.364292944493727
262000 140.941612582799 17.8368777320757 -899.315399985108 -1277.00343753487 377.688037549762 0.360395536638434
  262000    140.94161    17.836878   -1277.0034   -1277.0034            0    377.68804    -899.3154   0.36039554 
263000 137.80429999901 -44.9960455588241 -927.189654592225 -1296.47048428309 369.280829690866 0.363668585187678
264000 134.688687272791 27.1414036677288 -925.554622727396 -1286.48639471439 360.931771986993 0.36448586146912
  264000    134.68869    27.141404   -1286.4864   -1286.4864            0    360.93177   -925.55462   0.36448586 
265000 133.914895019122 -26.8330007757799 -945.669414142768 -1304.52761770378 358.858203561007 0.366803707888416
266000 140.407296240788 36.7815862958424 -885.042753704186 -1261.29895797954 376.256204275352 0.356722224041702
  266000     140.4073    36.781586    -1261.299    -1261.299            0     376.2562   -885.04275   0.35672222 
267000 142.035705359619 -34.6067361165516 -880.941868500728 -1261.56179923804 380.619930737316 0.35613058874788
268000 134.98800701069 77.8817945755199 -905.523844021267 -1267.25771754758 361.733873526316 0.360010939505127
  268000    134.98801    77.881795   -1267.2577   -1267.2577            0    361.73387   -905.52384   0.36001094 
269000 138.769217620632 -58.6412129126543 -890.50954976056 -1262.37611574484 371.866565984282 0.356497739271518
270000 141.206798872402 112.066347192883 -924.117830620106 -1302.51650066136 378.398670041258 0.37013864091658
  270000     141.2068    112.06635   -1302.5165   -1302.5165            0    378.39867   -924.11783   0.37013864 
271000 148.355753290902 14.5576052554593 -844.712079433863 -1242.26814745983 397.556068025971 0.351855838407147
272000 137.620257697048 -14.9778674985238 -954.664199254708 -1323.45184191174 368.78764265703 0.371361798746775
  272000    137.62026   -14.977867   -1323.4518   -1323.4518            0    368.78764    -954.6642    0.3713618 
273000 138.645382264942 -1.51742915667753 -900.577145710788 -1272.11186411923 371.534718408445 0.357519319375612
274000 136.209123938382 88.8549800224399 -901.550082287501 -1266.55624174546 365.006159457964 0.361112695253149
  274000    136.20912     88.85498   -1266.5562   -1266.5562            0    365.00616   -901.55008    0.3611127 
275000 136.312945686802 1.55504265620874 -930.641498942615 -1295.92587454766 365.284375605044 0.362458191642288
276000 136.584768676307 151.903532003156 -944.153067475539 -1310.16586025693 366.012792781387 0.373176903198725
  276000    136.58477    151.90353   -1310.1659   -1310.1659            0    366.01279   -944.15307    0.3731769 
277000 146.573003058093 -45.1178890094474 -889.027944939202 -1281.80669117545 392.778746236246 0.35835185795082
278000 141.785901957693 -72.741629106068 -926.237430144724 -1306.18795065665 379.950520511922 0.365979113646726
  278000     141.7859   -72.741629    -1306.188    -1306.188            0    379.95052   -926.23743   0.36597911 
279000 137.575545857784 74.5879436444913 -907.451407157587 -1276.11923334227 368.66782618468 0.361907830247709
280000 143.524314757164 -1.36629467300033 -846.386469035591 -1230.99549817851 384.609029142918 0.349295982454086
  280000    143.52431   -1.3662947   -1230.9955   -1230.9955            0    384.60903   -846.38647   0.34929598 
281000 139.113754064285 -10.7073573350564 -906.232227769828 -1279.02206468086 372.789836911036 0.3609544938308
282000 141.379157855529 54.4644882191581 -944.72825314993 -1323.588801872 378.860548722071 0.37309357658926
  282000    141.37916    54.464488   -1323.5888   -1323.5888            0    378.86055   -944.72825   0.37309358 
283000 141.074917955802 -1.94475177238215 -897.891023382644 -1275.93628577042 378.045262387777 0.358638991301092
284000 137.86744095104 -22.302577472875 -944.15856565542 -1313.60859720104 369.450031545623 0.368880442039116
  284000    137.86744   -22.302577   -1313.6086   -1313.6086            0    369.45003   -944.15857   0.36888044 
285000 144.382887472187 100.114738758924 -927.23885238842 -1314.148640249 386.909787860578 0.37237074129278
286000 143.266543725968 14.7142427835538 -925.232313449573 -1309.15058112662 383.91826767705 0.369529497017076
  286000    143.26654    14.714243   -1309.1506   -1309.1506            0    383.91827   -925.23231    0.3695295 
287000 131.093383291355 5.30764599863731 -914.675275938513 -1265.97253842715 351.297262488634 0.358402434114824
288000 138.056955254784 121.220378889518 -917.247753405546 -1287.20563557213 369.95788216658 0.367663174521381
  288000    138.05696    121.22038   -1287.2056   -1287.2056            0    369.95788   -917.24775   0.36766317 
289000 140.891419547001 44.5965744091726 -959.877023504726 -1337.4305563554 377.553532850676 0.377712214437002
290000 144.069987668194 29.202204705011 -917.646364038152 -1303.71765920126 386.071295163111 0.366967994471874
  290000    144.06999    29.202205   -1303.7177   -1303.7177            0     386.0713   -917.64636   0.36696799 
291000 141.415937485118 16.7875039613651 -892.40365546273 -1271.36276433227 378.959108869545 0.360932372202029
292000 141.272087011472 61.7292403832562 -903.474104887583 -1282.04773070428 378.573625816695 0.363783225662382
  292000    141.27209     61.72924   -1282.0477   -1282.0477            0    378.57363    -903.4741   0.36378323 
293000 138.913142373898 52.4132509708324 -890.926182554346 -1263.17843064216 372.252248087811 0.360330249625723
294000 132.560409550625 -87.0966269697384 -933.581697927327 -1288.81022144486 355.228523517536 0.361826839244695
  294000    132.56041   -87.096627   -1288.8102   -1288.8102            0    355.22852    -933.5817   0.36182684 
295000 130.510429232848 -52.0817131068908 -944.501886495165 -1294.23697887446 349.735092379292 0.363091413680507
296000 144.373374249255 -5.06742429804959 -900.337720094133 -1287.22201491235 386.884294818217 0.361468075021799
  296000    144.37337   -5.0674243    -1287.222    -1287.222            0    386.88429   -900.33772   0.36146808 
297000 146.94710591722 5.79136943364656 -881.06454166632 -1274.845789379 393.781247712681 0.360605420146028
298000 136.186008165169 -76.0963585504442 -935.571225891527 -1300.51544089702 364.944215005497 0.363577920046009
  298000    136.18601   -76.096359   -1300.5154   -1300.5154            0    364.94422   -935.57123   0.36357792 
299000 140.077904138346 55.1036675908493 -914.157960970096 -1289.53147734033 375.373516370229 0.365046788754205
300000 141.725445884839 -15.0361833656931 -882.600070682735 -1262.38858414013 379.788513457399 0.355741770960897
  300000    141.72545   -15.036183   -1262.3886   -1262.3886            0    379.78851   -882.60007   0.35574177 
301000 137.852449378696 98.6775525646407 -920.778563164566 -1290.18842107066 369.409857906095 0.367065902473483
302000 145.195000236466 -4.98197065161214 -878.555717497299 -1267.64176310453 389.086045607235 0.356039199051047
  302000      145.195   -4.9819707   -1267.6418   -1267.6418            0    389.08605   -878.55572    0.3560392 
303000 137.368197546315 -3.33799589675417 -920.68607359688 -1288.79825850988 368.112184913 0.363332023381795
304000 139.507910682153 5.63036741781217 -901.105869581625 -1274.95194699369 373.846077412061 0.358316617286117
  304000    139.50791    5.6303674   -1274.9519   -1274.9519            0    373.84608   -901.10587   0.35831662 
305000 147.516241302237 -21.6745560947184 -883.073872994142 -1278.38026025027 395.306387256129 0.357656501205522
306000 138.922090351647 88.1375347657057 -954.521971159308 -1326.7981975747 372.27622641539 0.373607340193236
  306000    138.92209    88.137535   -1326.7982   -1326.7982            0    372.27623   -954.52197   0.37360734 
307000 129.310983182166 -78.644493247516 -914.458514883692 -1260.97939382575 346.52087894206 0.351876011547877
308000 134.207338027403 3.43211960036411 -924.118462034704 -1283.76033923098 359.641877196272 0.362336431887875
  308000    134.20734    3.4321196   -1283.7603   -1283.7603            0    359.64188   -924.11846   0.36233643 
309000 138.182336880767 96.3325493370883 -924.345834912002 -1294.6397082695 370.2938733575 0.368123326719091
310000 134.436082398223 -38.9475798523113 -947.525495051729 -1307.78034957196 360.254854520232 0.365921417432272
  310000    134.43608    -38.94758   -1307.7803   -1307.7803            0    360.25485    -947.5255   0.36592142 
311000 134.399058585888 45.3055093109757 -936.286010375514 -1296.44165039999 360.155640024475 0.366221877389714
312000 136.624286924973 45.1246247714306 -947.210092436929 -1313.32878417543 366.118691738499 0.3709867315123
  312000    136.62429    45.124625   -1313.3288   -1313.3288            0    366.11869   -947.21009   0.37098673 
313000 148.275267137594 -27.0014695826087 -886.592250888115 -1283.93263628682 397.340385398707 0.361419164570087
314000 142.403647960607 -50.5642225232019 -940.952765006111 -1322.55868927899 381.605924272878 0.369893972328363
  314000    142.40365   -50.564223   -1322.5587   -1322.5587            0    381.60592   -940.95277   0.36989397 
315000 142.070020460229 -33.2373270103842 -907.768877927002 -1288.48076449461 380.711886567608 0.360352521393957
316000 142.588356938989 128.736353390147 -893.414991516455 -1275.51588934813 382.100897831676 0.363717765742555
  316000    142.58836    128.73635   -1275.5159   -1275.5159            0     382.1009   -893.41499   0.36371777 
317000 143.250632584757 -14.4278894055274 -911.648743029458 -1295.52437285393 383.875629824473 0.365069453931664
318000 131.235664694104 -48.8304425599979 -938.577195206387 -1290.2557360329 351.678540826515 0.362828862313988
  318000    131.23566   -48.830443   -1290.2557   -1290.2557            0    351.67854    -938.5772   0.36282886 
319000 138.990167843649 12.3366824801175 -883.136545784994 -1255.59520273942 372.458656954423 0.35593156350753
320000 140.600485204954 73.0589098488132 -895.757798237532 -1272.53170029862 376.773902061089 0.36195606565268
  320000    140.60049     73.05891   -1272.5317   -1272.5317            0     376.7739    -895.7578   0.36195607 
321000 141.662307637414 -35.5755846217904 -901.811594982026 -1281.43091383233 379.619318850304 0.359620849044775
322000 135.883552590058 56.7153751562069 -899.551592007739 -1263.68530221968 364.133710211943 0.357029019192803
  322000    135.88355    56.715375   -1263.6853   -1263.6853            0    364.13371   -899.55159   0.35702902 
323000 147.124324825725 71.2769724891607 -881.151431455918 -1275.40758122586 394.256149769946 0.362160420607308
324000 140.082962002723 -79.9264472541042 -889.288986429364 -1264.67605660273 375.387070173365 0.354057378351598
  324000    140.08296   -79.926447   -1264.6761   -1264.6761            0    375.38707   -889.28899   0.35405738 
325000 138.059794801547 -48.795291936601 -936.44910843121 -1306.41459986821 369.965491437005 0.364907952832348
326000 142.433993563019 -5.10333870742376 -902.72526858946 -1284.41251143684 381.687242847381 0.361454303442309
  326000    142.43399   -5.1033387   -1284.4125   -1284.4125            0    381.68724   -902.72527    0.3614543 
327000 142.480958415407 -5.26189984608103 -923.605546529121 -1305.41864335679 381.813096827671 0.365363908297458
328000 134.589892698931 0.635555252904842 -938.989323406154 -1299.65635080822 360.667027402069 0.365955060964611
  328000    134.58989   0.63555525   -1299.6564   -1299.6564            0    360.66703   -938.98932   0.36595506 
329000 138.328628388968 25.3260231791973 -906.25186392086 -1276.93776168925 370.685897768392 0.361598189824369
330000 137.174740448544 44.0730094167496 -920.572625400551 -1288.16639399726 367.59376859671 0.365243646790601
  330000    137.17474    44.073009   -1288.1664   -1288.1664            0    367.59377   -920.57263   0.36524365 
331000 138.656749457265 -35.5558352474678 -929.491539332468 -1301.05671895448 371.565179622011 0.365893789800276
332000 143.179510023443 107.450486830272 -898.085567494795 -1281.77060676112 383.685039266327 0.364617738720049
  332000    143.17951    107.45049   -1281.7706   -1281.7706            0    383.68504   -898.08557   0.36461774 
333000 143.557730587454 32.1094719285955 -909.635437835008 -1294.33401299017 384.698575155158 0.365312102312581
334000 142.651217782046 49.1079781184579 -895.544617111977 -1277.81396617688 382.269349064906 0.361316066577576
  334000    142.65122    49.107978    -1277.814    -1277.814            0    382.26935   -895.54462   0.36131607 
335000 145.462128744285 126.738482107574 -882.713908460788 -1272.51579121536 389.801882754568 0.362006793507456
336000 140.352445277252 53.5630914939375 -928.635331403527 -1304.74454890616 376.109217502633 0.36802655529069
  336000    140.35245    53.563091   -1304.7445   -1304.7445            0    376.10922   -928.63533   0.36802656 
337000 138.543282527239 -94.1767394630497 -870.802556788725 -1242.06367360527 371.261116816548 0.348264284027848
338000 139.47270742104 34.6086964270145 -922.536402802913 -1296.28814433814 373.75174153523 0.364860223854305
  338000    139.47271    34.608696   -1296.2881   -1296.2881            0    373.75174    -922.5364   0.36486022 
339000 138.625624247825 14.8203448118387 -919.368832522691 -1290.85060441964 371.481771896951 0.363443310096309
340000 138.24446362326 -72.9308259464753 -904.394951273588 -1274.85530865963 370.46035738604 0.357012530139982
  340000    138.24446   -72.930826   -1274.8553   -1274.8553            0    370.46036   -904.39495   0.35701253 
341000 141.370264207884 -40.7232888913982 -896.141018928898 -1274.97773491439 378.836715985494 0.358733007062653
342000 142.936399215279 54.8446918085771 -911.521755408132 -1294.55531891538 383.033563507252 0.365214844380757
  342000     142.9364    54.844692   -1294.5553   -1294.5553            0    383.03356   -911.52176   0.36521484 
343000 140.586101469241 19.8720743465753 -919.379219706412 -1296.11457697711 376.735357270699 0.365024791441439
344000 137.267048560626 -71.3338831423857 -907.386282079686 -1275.22741317682 367.841131097134 0.357637833622351
  344000    137.26705   -71.333883   -1275.2274   -1275.2274            0    367.84113   -907.38628   0.35763783 
345000 141.590768675455 80.4825644564374 -930.589581676 -1310.01719411926 379.427612443264 0.370745873484595
346000 142.608198984259 71.7371549949744 -911.005004482918 -1293.15907400039 382.154069517467 0.3667980573332
  346000     142.6082    71.737155   -1293.1591   -1293.1591            0    382.15407     -911.005   0.36679806 
347000 137.844868227036 -36.8695947224488 -952.759932671496 -1322.14947499981 369.389542328315 0.370457961107328
348000 138.367389364329 -17.854238601772 -933.231195044767 -1304.02096246847 370.7897674237 0.367146308319679
  348000    138.36739   -17.854239    -1304.021    -1304.021            0    370.78977    -933.2312   0.36714631 
349000 142.219657349455 11.2218182008486 -935.307999906422 -1316.42087566382 381.112875757396 0.37070900876223
350000 135.368806748802 -6.81060288175562 -905.184280796669 -1267.93860174906 362.754320952389 0.357307522635068
  350000    135.36881   -6.8106029   -1267.9386   -1267.9386            0    362.75432   -905.18428   0.35730752 
351000 137.957203122306 29.6807532681995 -917.089007736337 -1286.77957930198 369.690571565639 0.363234247106411
352000 141.00219281885 2.32867455959924 -905.96948724385 -1283.81986457424 377.850377330392 0.361922133647886
  352000    141.00219    2.3286746   -1283.8199   -1283.8199            0    377.85038   -905.96949   0.36192213 
353000 136.105370532691 -33.5512023665629 -902.962253179471 -1267.69037963167 364.728126452195 0.357118871311434
354000 140.144431420088 26.4854515018069 -929.365015269448 -1304.9168080055 375.551792736052 0.367500364301323
  354000    140.14443    26.485452   -1304.9168   -1304.9168            0    375.55179   -929.36502   0.36750036 
355000 140.681126195514 27.9756255990217 -884.116313957228 -1261.10631357043 376.989999613206 0.357662599927575
356000 142.277713510201 75.0169664201439 -873.202398176405 -1254.47084982809 381.268451651682 0.358090790076337
  356000    142.27771    75.016966   -1254.4708   -1254.4708            0    381.26845    -873.2024   0.35809079 
357000 142.72830444476 -3.28019555428226 -864.200094253464 -1246.67601616672 382.475921913253 0.351718253459007
358000 142.636828998722 57.4943317941508 -909.964156076222 -1292.19494682441 382.230790748191 0.364606769115502
  358000    142.63683    57.494332   -1292.1949   -1292.1949            0    382.23079   -909.96416   0.36460677 
359000 140.747045525481 -39.0451052238811 -894.72124178433 -1271.88788860567 377.166646821336 0.35920502751746
360000 139.135112406188 48.1096068402842 -942.733533660546 -1315.5806055506 372.847071890053 0.36993462323673
  360000    139.13511    48.109607   -1315.5806   -1315.5806            0    372.84707   -942.73353   0.36993462 
361000 137.877773000992 84.2296214172438 -948.478055171439 -1317.95577400968 369.477718838245 0.37191534494971
362000 142.416962396801 72.2085252094491 -895.389228604852 -1277.03083221462 381.641603609769 0.362331168580966
  362000    142.41696    72.208525   -1277.0308   -1277.0308            0     381.6416   -895.38923   0.36233117 
363000 137.259619701787 83.5677501455296 -915.003744947122 -1282.82496857289 367.821223625773 0.364593544750906
364000 141.018067244942 -26.4311806012902 -894.038853392396 -1271.93177018809 377.892916795693 0.357536266145739
  364000    141.01807   -26.431181   -1271.9318   -1271.9318            0    377.89292   -894.03885   0.35753627 
365000 144.11039265779 56.7322383735039 -894.085234201582 -1280.26480456425 386.179570362664 0.363180522631198
366000 135.124917874739 -45.1438142246735 -945.355056343697 -1307.45581651629 362.100760172595 0.364966543084909
  366000    135.12492   -45.143814   -1307.4558   -1307.4558            0    362.10076   -945.35506   0.36496654 
367000 140.318797920811 13.567141528226 -866.753191521291 -1242.77224257989 376.019051058599 0.351695775307018
368000 137.249447165848 -134.820393317435 -875.491882645058 -1243.2858464356 367.793963790544 0.347852413348025
  368000    137.24945   -134.82039   -1243.2858   -1243.2858            0    367.79396   -875.49188   0.34785241 
369000 132.700713654843 -68.4614978150739 -931.894542658623 -1287.49904585179 355.60450319317 0.360637881983064
370000 139.059332792593 -7.76885248732811 -909.194318747373 -1281.83832035165 372.644001604276 0.362848312990474
  370000    139.05933   -7.7688525   -1281.8383   -1281.8383            0      372.644   -909.19432   0.36284831 
371000 140.928769394617 -33.6973664988063 -890.875178037776 -1268.52879907668 377.653621038901 0.35571521692865
372000 143.6618838861 49.8264063801658 -912.692007206996 -1297.66968698036 384.977679773368 0.366903503882814
  372000    143.66188    49.826406   -1297.6697   -1297.6697            0    384.97768   -912.69201    0.3669035 
373000 147.255297298119 82.8639597614235 -910.726795622994 -1305.33391864467 394.607123021672 0.368416433540662
374000 140.542668445352 -50.402692172883 -928.758501530274 -1305.37746923187 376.618967701595 0.36499728392315
  374000    140.54267   -50.402692   -1305.3775   -1305.3775            0    376.61897    -928.7585   0.36499728 
375000 136.370020430465 -13.8033534795898 -917.630142611513 -1283.06746416015 365.437321548634 0.361624664612809
376000 139.424920168011 165.897835949489 -925.273256226228 -1298.8969399545 373.623683728272 0.370255473205068
  376000    139.42492    165.89784   -1298.8969   -1298.8969            0    373.62368   -925.27326   0.37025547 
377000 138.383217250077 97.9099703347953 -877.093010262642 -1247.92519243524 370.832182172596 0.354960275690467
378000 140.654799406622 -48.0932589131183 -895.822787761369 -1272.74223820851 376.919450447142 0.358545699836142
  378000     140.6548   -48.093259   -1272.7422   -1272.7422            0    376.91945   -895.82279    0.3585457 
379000 139.918270068822 -46.2630057875758 -926.028246668014 -1300.9739839222 374.945737254185 0.365791802783576
380000 140.53741081305 45.5792538030189 -924.487504538962 -1301.09238310968 376.604878570713 0.367634000274025
  380000    140.53741    45.579254   -1301.0924   -1301.0924            0    376.60488    -924.4875     0.367634 
381000 151.159591014809 46.0219172994383 -890.835298934897 -1295.9049461526 405.069647217699 0.364617155142519
382000 136.358225288807 29.8299037960536 -921.551031577972 -1286.95674511657 365.405713538594 0.364235431319782
  382000    136.35823    29.829904   -1286.9567   -1286.9567            0    365.40571   -921.55103   0.36423543 
383000 138.221504534428 -1.71637811693024 -921.653730142625 -1292.05256295089 370.398832808266 0.36331217543724
384000 134.939509277078 -55.298960142833 -916.736388757191 -1278.34030056746 361.603911810269 0.360038034027396
  384000    134.93951    -55.29896   -1278.3403   -1278.3403            0    361.60391   -916.73639   0.36003803 
385000 140.590279791462 4.7814211264591 -919.613059373046 -1296.35961349534 376.746554122297 0.365553920378469
386000 144.811594312188 85.1148673721255 -886.356941015829 -1274.41555527421 388.05861425838 0.362783101079048
  386000    144.81159    85.114867   -1274.4156   -1274.4156            0    388.05861   -886.35694    0.3627831 
387000 145.992773432198 37.0230206289892 -884.612814268246 -1275.83669118863 391.223876920388 0.358988902729601
388000 139.830334421157 -84.1040409544024 -888.634331873279 -1263.34442373084 374.710091857563 0.353696245997
  388000    139.83033   -84.104041   -1263.3444   -1263.3444            0    374.71009   -888.63433   0.35369625 
389000 145.881473636066 61.7391373355747 -903.645723854061 -1294.57134534221 390.925621488154 0.366161846437455
390000 136.319311497911 11.4151897162961 -916.922224583621 -1282.22365895975 365.301434376126 0.362159552115425
  390000    136.31931     11.41519   -1282.2237   -1282.2237            0    365.30143   -916.92222   0.36215955 
391000 135.795044396232 54.3900654205803 -924.802252541359 -1288.69878307712 363.89653053576 0.364423511733966
392000 137.624945757024 48.6581550924717 -925.789784102004 -1294.58998957948 368.800205477474 0.365779455173026
  392000    137.62495    48.658155     -1294.59     -1294.59            0    368.80021   -925.78978   0.36577946 
393000 140.90887137287 -114.171639432705 -899.0305707348 -1276.63087008504 377.600299350244 0.356849725581114
394000 142.781559824829 -14.1874188458885 -890.456808733351 -1273.07544165734 382.618632923993 0.358563345467864
  394000    142.78156   -14.187419   -1273.0754   -1273.0754            0    382.61863   -890.45681   0.35856335 
395000 145.134975643682 34.004823974428 -930.2640028681 -1319.18919767877 388.925194810668 0.370737597124954
396000 138.078039346553 41.0157945232589 -906.895508504839 -1276.90989072912 370.014382224283 0.361919316772856
  396000    138.07804    41.015795   -1276.9099   -1276.9099            0    370.01438   -906.89551   0.36191932 
397000 138.893515071009 -77.2424011604776 -891.501578701487 -1263.70123055902 372.199651857537 0.355606057073906
398000 135.401424398865 2.38782898958766 -947.338731769727 -1310.1804598123 362.841728042576 0.367908904370214
  398000    135.40142     2.387829   -1310.1805   -1310.1805            0    362.84173   -947.33873    0.3679089 
399000 145.000641863466 -56.4829406879578 -915.855450724416 -1304.42066482466 388.56521410024 0.365154279459673
400000 140.582649788114 36.1935525526766 -915.323441435158 -1292.04954906945 376.726107634293 0.364989659342654
  400000    140.58265    36.193553   -1292.0495   -1292.0495            0    376.72611   -915.32344   0.36498966 
401000 143.374118359866 -50.0267380438091 -875.976831237549 -1260.18337184991 384.206540612363 0.353726029949901
402000 133.98328076491 -155.570078201103 -961.34695805045 -1320.38841819303 359.041460142578 0.366185005951174
  402000    133.98328   -155.57008   -1320.3884   -1320.3884            0    359.04146   -961.34696   0.36618501 
403000 139.652235060041 28.9668351672935 -923.333849970875 -1297.56668037984 374.232830408967 0.365812878881381
404000 137.195003345468 15.4505968063196 -895.999209482068 -1263.64727754105 367.648068058978 0.356848491162594
  404000      137.195    15.450597   -1263.6473   -1263.6473            0    367.64807   -895.99921   0.35684849 
405000 134.94707054807 -92.6159178783051 -917.210259484131 -1278.83443359699 361.624174112863 0.357499471430249
406000 144.425114105114 23.0671032117886 -898.320640702824 -1285.34358530846 387.022944605631 0.362584684512269
  406000    144.42511    23.067103   -1285.3436   -1285.3436            0    387.02294   -898.32064   0.36258468 
407000 138.62882269879 33.7219026323398 -918.093217730894 -1289.58356067117 371.490342940278 0.363834211862434
408000 136.414502762067 26.8161834720938 -923.571171752839 -1289.12769475107 365.55652299823 0.364373844823828
  408000     136.4145    26.816183   -1289.1277   -1289.1277            0    365.55652   -923.57117   0.36437384 
409000 143.122502383846 59.9758678220631 -898.28897465689 -1281.82124780163 383.532273144739 0.360333520403794
410000 143.144601446281 21.3045853212052 -915.184438830273 -1298.77593189857 383.591493068294 0.364750951309529
  410000     143.1446    21.304585   -1298.7759   -1298.7759            0    383.59149   -915.18444   0.36475095 
411000 141.819002249625 25.8210612222931 -899.258891405169 -1279.29811236597 380.039220960802 0.361016941973261
412000 140.738743951725 -9.86135796788183 -950.109710972589 -1327.2541116663 377.144400693715 0.371655720767851
  412000    140.73874    -9.861358   -1327.2541   -1327.2541            0     377.1444   -950.10971   0.37165572 
413000 143.022109432281 89.464564763115 -915.773058429646 -1299.03630373963 383.263245309981 0.368624560655142
414000 140.35929563292 -40.0264528441511 -907.182823925573 -1283.31039865672 376.127574731144 0.358452893740774
  414000     140.3593   -40.026453   -1283.3104   -1283.3104            0    376.12757   -907.18282   0.35845289 
415000 139.768092500461 -19.9677419793261 -925.640846048614 -1300.18414522905 374.543299180439 0.365603263871465
416000 136.522276061021 15.084867085951 -924.801688094437 -1290.64701640031 365.845328305876 0.362311915587257
  416000    136.52228    15.084867    -1290.647    -1290.647            0    365.84533   -924.80169   0.36231192 
417000 139.506633199122 -24.905787845453 -892.928998847269 -1266.77165292643 373.842654079164 0.356892816659328
418000 143.838767368147 -44.9246478128599 -878.46090351504 -1263.91258648721 385.451682972174 0.352981037265365
  418000    143.83877   -44.924648   -1263.9126   -1263.9126            0    385.45168    -878.4609   0.35298104 
419000 139.837862685836 -52.6767245287158 -880.806486626136 -1255.53675233769 374.73026571155 0.351285424801871
420000 135.394727279632 28.6063036732799 -956.900466862591 -1319.72424831172 362.82378144913 0.370220174631871
  420000    135.39473    28.606304   -1319.7242   -1319.7242            0    362.82378   -956.90047   0.37022017 
421000 145.756424030318 24.8606702124514 -890.533650485755 -1281.12417051362 390.590520027867 0.360252329580082
422000 136.331804797257 9.45398825342191 -921.164913525877 -1286.49982679887 365.334913272997 0.363106583401017
  422000     136.3318    9.4539883   -1286.4998   -1286.4998            0    365.33491   -921.16491   0.36310658 
423000 139.854441336891 -101.337639979077 -930.505819109521 -1305.28051143197 374.774692322451 0.362605603634734
424000 139.223689344195 -63.2246759040349 -941.66027320174 -1314.74470898507 373.084435783333 0.367394719902691
  424000    139.22369   -63.224676   -1314.7447   -1314.7447            0    373.08444   -941.66027   0.36739472 
425000 135.322117565624 67.5972615485744 -934.043017711445 -1296.67222340762 362.629205696177 0.36715102813365
426000 145.898545865758 6.23367017324416 -881.345463990904 -1272.31683475644 390.971370765537 0.35904817119661
  426000    145.89855    6.2336702   -1272.3168   -1272.3168            0    390.97137   -881.34546   0.35904817 
427000 144.164468764578 -121.538826204878 -903.686025138869 -1290.01050585325 386.324480714381 0.359511550997593
428000 137.62345178839 -11.9159841807885 -897.712326659964 -1266.50852867763 368.796202017664 0.355745950466109
  428000    137.62345   -11.915984   -1266.5085   -1266.5085            0     368.7962   -897.71233   0.35574595 
429000 140.682540864455 -63.3746966139679 -883.781833383879 -1260.77562395368 376.993790569804 0.354711232894303
430000 130.157353869769 -32.4443166384542 -936.571408473357 -1285.36034777163 348.788939298276 0.362415772489023
  430000    130.15735   -32.444317   -1285.3603   -1285.3603            0    348.78894   -936.57141   0.36241577 
431000 139.735661034671 -75.1462033612525 -905.695710306976 -1280.15210132421 374.456391017232 0.359749659733896
432000 141.366581586381 31.4430013426143 -893.008217323284 -1271.8350648103 378.82684748702 0.36009667183467
  432000    141.36658    31.443001   -1271.8351   -1271.8351            0    378.82685   -893.00822   0.36009667 
433000 145.889788172692 33.5253532521958 -923.569448592868 -1314.51735094587 390.947902353001 0.368915906424226
434000 138.417760342357 34.385558127581 -909.569242543777 -1280.49399150694 370.924748963164 0.363609833693669
  434000    138.41776    34.385558    -1280.494    -1280.494            0    370.92475   -909.56924   0.36360983 
435000 142.210741111465 -7.95309411912219 -911.320966035195 -1292.40994851957 381.088982484379 0.362984804435072
436000 144.402331550269 104.467395249957 -928.531517504674 -1315.49341059917 386.961893094499 0.373530735866934
  436000    144.40233     104.4674   -1315.4934   -1315.4934            0    386.96189   -928.53152   0.37353074 
437000 139.064084007279 -21.8321053542537 -942.152859466927 -1314.80959313037 372.656733663445 0.368706663004564
438000 145.583377405603 26.2759188917145 -892.212487251011 -1282.33928589174 390.126798640725 0.362905553847438
  438000    145.58338    26.275919   -1282.3393   -1282.3393            0     390.1268   -892.21249   0.36290555 
439000 135.499139714062 -48.4957086887576 -966.423601411111 -1329.52718189711 363.103580486002 0.371425019875087
440000 133.021483814119 -89.9524703453635 -927.244245172361 -1283.70833163368 356.464086461315 0.359782325809292
  440000    133.02148    -89.95247   -1283.7083   -1283.7083            0    356.46409   -927.24425   0.35978233 
441000 144.531659596699 65.6277972619864 -915.521387439682 -1302.82984713833 387.308459698649 0.367508809532666
442000 140.27397168699 6.35108652624093 -897.356825606553 -1273.25575364419 375.898928037637 0.35957059724604
  442000    140.27397    6.3510865   -1273.2558   -1273.2558            0    375.89893   -897.35683    0.3595706 
443000 142.348753980612 73.5978448223159 -918.60983276685 -1300.06865499373 381.458822226877 0.36869279786617
444000 140.084956931344 -25.1636052388266 -892.489008640066 -1267.88142471988 375.392416079816 0.3577006865797
  444000    140.08496   -25.163605   -1267.8814   -1267.8814            0    375.39242   -892.48901   0.35770069 
445000 139.012942740097 -27.2792423769408 -911.086719413935 -1283.60640735691 372.51968794298 0.359743276376745
446000 134.449028016788 38.9406300276975 -923.680194833292 -1283.96974035202 360.289545518731 0.363488454946514
  446000    134.44903     38.94063   -1283.9697   -1283.9697            0    360.28955   -923.68019   0.36348845 
447000 138.454379545766 31.8810064766763 -934.896516948047 -1305.91939615691 371.022879208864 0.36849558795691
448000 146.756789454946 -92.8799417271219 -893.265269484005 -1286.53651699283 393.27124750882 0.358362354200444
  448000    146.75679   -92.879942   -1286.5365   -1286.5365            0    393.27125   -893.26527   0.35836235 
449000 135.184174849294 132.050327944962 -928.985053944488 -1291.24460789006 362.259553945567 0.368288242064082
450000 140.458960235598 39.4354228556586 -907.217216339278 -1283.61186711353 376.394650774255 0.36319062858997
  450000    140.45896    39.435423   -1283.6119   -1283.6119            0    376.39465   -907.21722   0.36319063 
451000 138.145242332591 8.85102007288982 -910.661238210556 -1280.85570751806 370.194469307502 0.362186517743354
452000 139.534883828089 157.552942244818 -922.368257708329 -1296.2866163606 373.918358652275 0.370126571960128
  452000    139.53488    157.55294   -1296.2866   -1296.2866            0    373.91836   -922.36826   0.37012657 
453000 137.764973174227 -47.3356972039469 -890.903405869703 -1260.07884957127 369.17544370157 0.355338021944779
454000 144.413201916809 6.80728227250576 -864.290211882556 -1251.2812348226 386.991022940047 0.354759072550171
  454000     144.4132    6.8072823   -1251.2812   -1251.2812            0    386.99102   -864.29021   0.35475907 
455000 141.850543236093 0.566007498681888 -889.968520972925 -1270.09226383654 380.123742863618 0.360245928456422
456000 142.780610085553 -45.6252776124169 -912.191520342398 -1294.80760820424 382.616087861845 0.363994780372037
  456000    142.78061   -45.625278   -1294.8076   -1294.8076            0    382.61609   -912.19152   0.36399478 
457000 141.03791730283 -78.5004318449297 -893.003121823369 -1270.94923177665 377.946109953281 0.355975357592171
458000 136.651421568631 22.5877708252483 -914.212873883709 -1280.40427963566 366.191405751946 0.36078852004039
  458000    136.65142    22.587771   -1280.4043   -1280.4043            0    366.19141   -914.21287   0.36078852 
459000 140.83069750917 129.882709836509 -939.007305238084 -1316.39811831506 377.390813076975 0.373633514392829
460000 137.692773721478 11.5736172084062 -964.308762041716 -1333.29072938722 368.981967345499 0.373540476742996
  460000    137.69277    11.573617   -1333.2907   -1333.2907            0    368.98197   -964.30876   0.37354048 
461000 139.820135731186 19.1069999511279 -895.118717254584 -1269.8014791907 374.682761936115 0.357442572215022
462000 140.694753607936 95.6002612330412 -908.610197003417 -1285.63671465101 377.026517647591 0.364839378719811
  462000    140.69475    95.600261   -1285.6367   -1285.6367            0    377.02652    -908.6102   0.36483938 
463000 145.623239322705 -17.4713770837176 -903.845366188024 -1294.07898473074 390.233618542721 0.363994287015874
464000 140.912599626073 -14.4137672541107 -894.895442425373 -1272.50573255556 377.610290130185 0.356992306430276
  464000     140.9126   -14.413767   -1272.5057   -1272.5057            0    377.61029   -894.89544   0.35699231 
465000 138.391808102415 -122.552155306626 -923.128128571338 -1293.98333206532 370.855203493986 0.359571331653282
466000 134.715232297885 -74.3759399135915 -926.77624441953 -1287.77915039067 361.002905971137 0.360220435307306
  466000    134.71523    -74.37594   -1287.7792   -1287.7792            0    361.00291   -926.77624   0.36022044 
467000 144.451544537326 62.0252298276504 -926.625130693098 -1313.7189022028 387.093771509701 0.370668541770768
468000 141.026955536855 -26.0939259251158 -895.089163637507 -1273.00589881777 377.916735180258 0.35786493403283
  468000    141.02696   -26.093926   -1273.0059   -1273.0059            0    377.91674   -895.08916   0.35786493 
469000 148.058454981577 53.1014229238673 -927.416174079099 -1324.1755574854 396.759383406304 0.373055663961824
470000 144.368666293363 -23.0332338195059 -895.283142183095 -1282.15482086482 386.871678681726 0.361407378689761
  470000    144.36867   -23.033234   -1282.1548   -1282.1548            0    386.87168   -895.28314   0.36140738 
471000 140.285708479375 -39.046738159627 -929.491398565145 -1305.42177825146 375.930379686315 0.365423836732962
472000 135.515849931621 -32.1705243516298 -939.124447427382 -1302.27280708939 363.14835966201 0.364880816361195
  472000    135.51585   -32.170524   -1302.2728   -1302.2728            0    363.14836   -939.12445   0.36488082 
473000 138.157845695736 -27.9560960269055 -924.786278550223 -1295.01452169787 370.228243147644 0.363152993024054
474000 144.238209623748 89.0859179422154 -868.28683601415 -1254.80892366574 386.522087651588 0.35832592571656
  474000    144.23821    89.085918   -1254.8089   -1254.8089            0    386.52209   -868.28684   0.35832593 
475000 132.20192896354 -56.7790191707626 -927.056582974337 -1281.32446877137 354.267885797031 0.360074771904722
476000 137.437208026664 -47.4573926924062 -898.577612781833 -1266.87472840774 368.297115625908 0.357308977615354
  476000    137.43721   -47.457393   -1266.8747   -1266.8747            0    368.29712   -898.57761   0.35730898 
477000 140.059815514255 92.688327528373 -915.477541110914 -1290.80258452266 375.325043411749 0.365637739546051
478000 138.183383625793 -42.0396592439411 -937.544870412935 -1307.84154878357 370.296678370638 0.366215009369314
  478000    138.18338   -42.039659   -1307.8415   -1307.8415            0    370.29668   -937.54487   0.36621501 
479000 138.473044711189 -32.675873922396 -906.546361488531 -1277.61925864149 371.072897152962 0.360896019577329
480000 132.827526453895 21.9411649625477 -945.969897513486 -1301.91422708109 355.944329567601 0.368011473072841
  480000    132.82753    21.941165   -1301.9142   -1301.9142            0    355.94433    -945.9699   0.36801147 
481000 143.668268281236 -77.6195657628835 -880.271204350866 -1265.26599269583 384.994788344966 0.355676922132381
482000 138.68787210716 29.2788314190069 -903.933387000902 -1275.58196748904 371.648580488133 0.361210977137245
  482000    138.68787    29.278831    -1275.582    -1275.582            0    371.64858   -903.93339   0.36121098 
483000 141.299471619727 50.1430898500333 -930.84825747222 -1309.49526714455 378.64700967233 0.370657591016873
484000 140.930877591742 -0.643578069089212 -896.587744952655 -1274.24701542908 377.659270476426 0.359207811324133
  484000    140.93088  -0.64357807    -1274.247    -1274.247            0    377.65927   -896.58774   0.35920781 
485000 136.656670270578 -62.6991135039306 -922.342858073764 -1288.54832902549 366.205470951725 0.362242332798531
486000 141.325343151917 -11.3474363791957 -891.77065133358 -1270.48699019863 378.716338865053 0.358401760147567
  486000    141.32534   -11.347436    -1270.487    -1270.487            0    378.71634   -891.77065   0.35840176 
487000 135.428003320372 -82.6766633621607 -923.838266888736 -1286.75121974931 362.91295286057 0.360317764174778
488000 142.949995201791 60.7132592042156 -890.051054924651 -1273.12105225276 383.069997328111 0.359628067035026
  488000       142.95    60.713259   -1273.1211   -1273.1211            0       383.07   -890.05105   0.35962807 
489000 136.423409273633 67.2806503275125 -915.747509992205 -1281.32790019909 365.58039020688 0.362984447615394
490000 142.38805486164 24.0594680564196 -897.583768990863 -1279.14790768431 381.564138693443 0.361743655522931
  490000    142.38805    24.059468   -1279.1479   -1279.1479            0    381.56414   -897.58377   0.36174366 
491000 140.418547976631 20.8464663871823 -930.774154490507 -1307.06051058513 376.286356094618 0.368696212598746
492000 144.862137682983 0.0912403464239688 -868.192701445037 -1256.38675921209 388.194057767058 0.353423124398272
  492000    144.86214  0.091240346   -1256.3868   -1256.3868            0    388.19406    -868.1927   0.35342312 
493000 139.839201764005 -23.1302099977315 -884.03608656967 -1258.76994067358 374.733854103909 0.354616634694871
494000 144.243617420175 15.3325258765169 -888.572675446127 -1275.10925463065 386.536579184518 0.358652895827554
  494000    144.24362    15.332526   -1275.1093   -1275.1093            0    386.53658   -888.57268    0.3586529 
495000 140.106375816645 133.779441929012 -917.663704906885 -1293.11351820678 375.449813299895 0.367966083190079
496000 141.241847651963 55.1774342336033 -910.712335597495 -1289.20492754392 378.492591946425 0.364344445760114
  496000    141.24185    55.177434   -1289.2049   -1289.2049            0    378.49259   -910.71234   0.36434445 
497000 138.681869692166 76.3399645820729 -914.231462478526 -1285.86395800567 371.632495527148 0.365464720066011
498000 138.962967981806 32.7599934961272 -915.865599374651 -1288.25136754731 372.385768172658 0.363439537342207
  498000    138.96297    32.759993   -1288.2514   -1288.2514            0    372.38577    -915.8656   0.36343954 
499000 138.122543015818 114.826888863279 -955.767064633387 -1325.90070548683 370.133640853443 0.376601460366781
500000 142.566619604613 -127.099776722073 -881.209194251264 -1263.25184149951 382.04264724825 0.352551170464688
  500000    142.56662   -127.09978   -1263.2518   -1263.2518            0    382.04265   -881.20919   0.35255117 
501000 141.972262368963 -22.8113808064122 -903.664399701864 -1284.11431919695 380.449919495086 0.361988321868297
502000 132.490295468311 72.2908714763064 -957.200024697294 -1312.24066012651 355.040635429212 0.371933246640936
  502000     132.4903    72.290871   -1312.2407   -1312.2407            0    355.04064   -957.20002   0.37193325 
503000 147.252671686709 -6.79124130853847 -904.682709784724 -1299.28279682885 394.600087044131 0.365738558008167
504000 141.336177992138 27.2672902903792 -901.714608323547 -1280.45998183256 378.745373509011 0.363043939049501
  504000    141.33618     27.26729     -1280.46     -1280.46            0    378.74537   -901.71461   0.36304394 
505000 136.122826079934 -13.7303974355893 -945.19468376119 -1309.9695866853 364.774902924109 0.367948126023391
506000 141.64221912228 8.78299118010887 -884.610970853386 -1264.17645754072 379.565486687331 0.357596595176647
  506000    141.64222    8.7829912   -1264.1765   -1264.1765            0    379.56549   -884.61097    0.3575966 
507000 140.615183263618 4.58758599316252 -922.94357041456 -1299.75685957241 376.813289157852 0.365263470304675
508000 139.849000983815 42.0910623561694 -907.402963768242 -1282.16307731414 374.760113545899 0.362547622406864
  508000      139.849    42.091062   -1282.1631   -1282.1631            0    374.76011   -907.40296   0.36254762 
509000 140.792652503201 -0.840052495796478 -894.052432740718 -1271.3412947801 377.288862039381 0.359892542149509
510000 138.039138035935 -132.252336211521 -930.852194984801 -1300.76233149062 369.910136505817 0.362441288343228
  510000    138.03914   -132.25234   -1300.7623   -1300.7623            0    369.91014   -930.85219   0.36244129 
511000 138.518148088459 -39.2950941711254 -914.055322225397 -1285.24908507399 371.193762848591 0.359698642069531
512000 139.531767971826 11.1705020324756 -893.736900416282 -1267.64690935824 373.910008941954 0.356672346983244
  512000    139.53177    11.170502   -1267.6469   -1267.6469            0    373.91001    -893.7369   0.35667235 
513000 137.450727790402 169.265515857695 -935.068679710882 -1303.4020248998 368.333345188923 0.37298127281724
514000 137.391008447182 47.8842271268871 -921.306088494437 -1289.47940087877 368.173312384335 0.365451711990877
  514000    137.39101    47.884227   -1289.4794   -1289.4794            0    368.17331   -921.30609   0.36545171 
515000 147.896668366632 -16.7862247897096 -874.737948314883 -1271.06378432535 396.325836010468 0.358352827700267
516000 139.511443527652 -19.5423413452027 -906.15755583156 -1280.01310038011 373.855544548551 0.359844667822598
  516000    139.51144   -19.542341   -1280.0131   -1280.0131            0    373.85554   -906.15756   0.35984467 
517000 144.601873991867 154.63964037975 -892.321665969605 -1279.81828256977 387.496616600168 0.364996654237397
518000 138.93230911438 54.2439161043019 -913.399532771426 -1285.70314289821 372.303610126788 0.364171475657302
  518000    138.93231    54.243916   -1285.7031   -1285.7031            0    372.30361   -913.39953   0.36417148 
519000 147.420903544403 74.8832828354477 -908.089384137609 -1303.14029020546 395.050906067849 0.368952658212483
520000 145.318614158497 -56.0513113049371 -911.035396466596 -1300.45269626321 389.417299796613 0.363871736031344
  520000    145.31861   -56.051311   -1300.4527   -1300.4527            0     389.4173    -911.0354   0.36387174 
521000 138.982521150059 -18.1704051250934 -928.343044507245 -1300.78121024802 372.438165740771 0.364279105746336
522000 143.75084116645 -34.4675279771546 -895.111104796377 -1280.32716768475 385.216062888371 0.360785441566831
  522000    143.75084   -34.467528   -1280.3272   -1280.3272            0    385.21606    -895.1111   0.36078544 
523000 131.009704350134 -130.236691294563 -926.264569556847 -1277.33759355044 351.073023993592 0.3569416806421
524000 139.724608303745 77.0795680513875 -920.995012071324 -1295.42178455236 374.42677248104 0.367751020828069
  524000    139.72461    77.079568   -1295.4218   -1295.4218            0    374.42677   -920.99501   0.36775102 
525000 138.710588758684 71.5688597185261 -948.208622203335 -1319.91807759829 371.709455394958 0.372332117779699
526000 139.863923556659 -38.139109614317 -899.564109391541 -1274.36421167568 374.800102284139 0.359829923064564
  526000    139.86392    -38.13911   -1274.3642   -1274.3642            0     374.8001   -899.56411   0.35982992 
527000 143.155833603245 38.5062335674148 -916.489016718856 -1300.11060913995 383.621592421092 0.367398655534516
528000 138.585023002604 -125.183069209191 -914.620291435197 -1285.99326221693 371.372970781733 0.35832727102422
  528000    138.58502   -125.18307   -1285.9933   -1285.9933            0    371.37297   -914.62029   0.35832727 
529000 140.86507409737 11.194988102342 -929.003544023967 -1306.48647770249 377.482933678528 0.367471987611563
530000 136.974733805032 -49.8757754894899 -935.766107634143 -1302.82390878092 367.05780114678 0.366011267424847
  530000    136.97473   -49.875775   -1302.8239   -1302.8239            0     367.0578   -935.76611   0.36601127 
531000 141.93031939742 105.447394951844 -924.350919112925 -1304.68844200405 380.337522891125 0.37058962804186
532000 135.658568008787 37.1370065332366 -896.22709823487 -1259.75790641226 363.530808177392 0.357926411868497
  532000    135.65857    37.137007   -1259.7579   -1259.7579            0    363.53081    -896.2271   0.35792641 
533000 140.127521936074 81.8518873620151 -929.945992133427 -1305.45247170954 375.506479576111 0.370209407348302
534000 141.150711799973 98.8096451973866 -932.722917405843 -1310.97128821376 378.248370807914 0.372376285577443
  534000    141.15071    98.809645   -1310.9713   -1310.9713            0    378.24837   -932.72292   0.37237629 
535000 139.45094831403 -63.3607576180112 -917.209215044326 -1290.90264765095 373.693432606625 0.3616460670944
536000 142.632427915962 -40.5449676295382 -886.291123018403 -1268.51011997283 382.218996954431 0.356137568098771
  536000    142.63243   -40.544968   -1268.5101   -1268.5101            0      382.219   -886.29112   0.35613757 
537000 133.445829596926 15.8943541043158 -896.743612659125 -1254.34483898293 357.6012263238 0.356911453684967
538000 139.485667503676 -8.01135786047173 -897.692180055181 -1271.47865134898 373.786471293799 0.358979597938571
  538000    139.48567   -8.0113579   -1271.4787   -1271.4787            0    373.78647   -897.69218    0.3589796 
539000 148.189960248154 -61.4542664907293 -916.028538754333 -1313.14032316663 397.111784412302 0.365935858514244
540000 147.853733852006 75.649957657055 -873.280071621456 -1269.49085394214 396.21078232068 0.359703524171647
  540000    147.85373    75.649958   -1269.4909   -1269.4909            0    396.21078   -873.28007   0.35970352 
541000 138.188661918883 -32.9768568989216 -942.960743119889 -1313.27156598712 370.31082286723 0.367487246230065
542000 145.118886703501 -68.1467335377141 -891.870571346423 -1280.75265184804 388.882080501617 0.358741345215914
  542000    145.11889   -68.146734   -1280.7527   -1280.7527            0    388.88208   -891.87057   0.35874135 
543000 134.493259389395 17.477698723813 -933.569565310524 -1293.97763977193 360.408074461404 0.364472971481798
544000 138.304069867337 74.8665197543466 -918.389664128874 -1289.00975124227 370.620087113398 0.365951751706349
  544000    138.30407     74.86652   -1289.0098   -1289.0098            0    370.62009   -918.38966   0.36595175 
545000 137.520192947512 6.56880100419224 -930.236045701224 -1298.7555400223 368.519494321077 0.366336175243942
546000 134.198087062565 -18.4019518759833 -909.391593346353 -1269.00868028593 359.617086939576 0.357726416298576
  546000    134.19809   -18.401952   -1269.0087   -1269.0087            0    359.61709   -909.39159   0.35772642 
547000 143.47620814074 12.6012626318576 -926.048329556736 -1310.5284450792 384.480115522468 0.369055997753663
548000 141.815625524294 -11.5086289133643 -908.895665106622 -1288.92583729368 380.030172187057 0.361928121268132
  548000    141.81563   -11.508629   -1288.9258   -1288.9258            0    380.03017   -908.89567   0.36192812 
549000 142.761422178457 -1.33856851889941 -922.837487764405 -1305.40215686608 382.564669101672 0.368115530754074
550000 143.906889833819 51.9607585038395 -894.223073161333 -1279.85730719065 385.63423402932 0.360418873061447
  550000    143.90689    51.960759   -1279.8573   -1279.8573            0    385.63423   -894.22307   0.36041887 
551000 139.407519370338 -28.587616481526 -900.734489985078 -1274.3115439565 373.577053971422 0.357435779159279
552000 140.428994821287 -37.3341448422306 -913.001016341284 -1289.31536734943 376.314351008146 0.361043852993292
  552000    140.42899   -37.334145   -1289.3154   -1289.3154            0    376.31435   -913.00102   0.36104385 
553000 137.055974070531 60.2640293348423 -913.043277498034 -1280.31878210289 367.275504604858 0.365066611264026
554000 137.910338853995 16.3553604665233 -902.105296297036 -1271.67028342239 369.564987125349 0.358803549264098
  554000    137.91034     16.35536   -1271.6703   -1271.6703            0    369.56499    -902.1053   0.35880355 
555000 136.114555318888 16.1820467599198 -933.538187986269 -1298.29092735306 364.752739366795 0.366124273846114
556000 136.244014397336 245.595802859577 -928.377499942063 -1293.47715704583 365.099657103763 0.372644309488445
  556000    136.24401     245.5958   -1293.4772   -1293.4772            0    365.09966    -928.3775   0.37264431 
557000 137.37484649163 4.38809743492381 -900.258266947304 -1268.38826935978 368.130002412473 0.358863360278733
558000 140.437038948148 63.0995335370524 -917.949409705509 -1294.28531694841 376.335907242904 0.365562806217264
  558000    140.43704    63.099534   -1294.2853   -1294.2853            0    376.33591   -917.94941   0.36556281 
559000 136.785988700784 32.5366284137943 -880.280746281076 -1246.83275806789 366.552011786815 0.353039111302529
560000 141.06528374377 -19.5719702052094 -929.552230647524 -1307.57167577261 378.019445125089 0.365418848146876
  560000    141.06528    -19.57197   -1307.5717   -1307.5717            0    378.01945   -929.55223   0.36541885 
561000 140.360527924285 46.8224646324107 -922.563688355848 -1298.6945653176 376.130876961752 0.365852811370323
562000 138.735258451147 94.0471866161295 -890.77392714522 -1262.54949110501 371.775563959792 0.35892322837169
  562000    138.73526    94.047187   -1262.5495   -1262.5495            0    371.77556   -890.77393   0.35892323 
563000 144.063521936184 46.7933601791782 -894.92269310187 -1280.97666173104 386.053968629171 0.363679401688601
564000 134.689679411579 33.0616173326474 -931.747257556833 -1292.68168822599 360.934430669159 0.365305969974443
  564000    134.68968    33.061617   -1292.6817   -1292.6817            0    360.93443   -931.74726   0.36530597 
565000 136.646098131485 -69.4251506210058 -903.565928564671 -1269.74306884532 366.17714028065 0.356665843982361
566000 142.256486869661 58.9525080445348 -877.789343335947 -1259.00091293511 381.211569599161 0.356205492677829
  566000    142.25649    58.952508   -1259.0009   -1259.0009            0    381.21157   -877.78934   0.35620549 
567000 140.880713449883 64.9484832170074 -891.716340692039 -1269.24118389786 377.524843205821 0.361470632099116
568000 136.887478844176 -5.35692458277609 -928.521122405626 -1295.34510222506 366.823979819437 0.364478438187584
  568000    136.88748   -5.3569246   -1295.3451   -1295.3451            0    366.82398   -928.52112   0.36447844 
569000 144.262164220623 136.251598511818 -871.929214081656 -1258.51549402194 386.586279940281 0.359807232750302
570000 140.764688049218 -17.1689938186579 -875.274655506708 -1252.48857984989 377.213924343178 0.354069336572742
  570000    140.76469   -17.168994   -1252.4886   -1252.4886            0    377.21392   -875.27466   0.35406934 
571000 147.313614600713 44.2705673556091 -901.396666726972 -1296.16006543734 394.763398710365 0.366714944972652
572000 132.637371498016 31.9779934527906 -948.97695139504 -1304.41171355526 355.434762160215 0.369612974715132
  572000    132.63737    31.977993   -1304.4117   -1304.4117            0    355.43476   -948.97695   0.36961297 
573000 142.843416390282 -96.0810149244765 -939.963786448458 -1322.74817939454 382.784392946085 0.367758933119017
574000 140.784861752977 65.719947342893 -929.854937784136 -1307.12292257436 377.26798479022 0.368192391795331
  574000    140.78486    65.719947   -1307.1229   -1307.1229            0    377.26798   -929.85494   0.36819239 
575000 135.995433018036 -111.116066540196 -963.231409680013 -1327.66493127136 364.433521591344 0.368844852995208
576000 144.303174054037 21.2098616631919 -886.665158120371 -1273.36133408936 386.696175968989 0.361771056872374
  576000    144.30317    21.209862   -1273.3613   -1273.3613            0    386.69618   -886.66516   0.36177106 
577000 137.412950874163 -42.268419726471 -902.206942798243 -1270.43905536255 368.23211256431 0.357170814613329
578000 139.602962588957 18.7447698125301 -873.380820147176 -1247.48161273872 374.100792591547 0.35483062947118
  578000    139.60296     18.74477   -1247.4816   -1247.4816            0    374.10079   -873.38082   0.35483063 
579000 141.041443306114 64.0308950720081 -921.931949967905 -1299.88750872227 377.95555875436 0.36732505674858
580000 141.479913477636 -71.408118613636 -896.946733868908 -1276.07728229148 379.130548422573 0.358208585763254
  580000    141.47991   -71.408119   -1276.0773   -1276.0773            0    379.13055   -896.94673   0.35820859 
581000 146.969229474729 85.4440312187326 -872.249694362014 -1266.09022763888 393.840533276865 0.359857223380629
582000 134.150331786093 -95.5292826813883 -893.963543866887 -1253.45265868863 359.48911482174 0.351665874507035
  582000    134.15033   -95.529283   -1253.4527   -1253.4527            0    359.48911   -893.96354   0.35166587 
583000 142.786746418742 64.2747663928371 -919.329020841304 -1301.96155253118 382.632531689878 0.367999008148095
584000 130.156373600792 35.3334505910782 -930.12396535466 -1278.91027777888 348.786312424216 0.360786722491337
  584000    130.15637    35.333451   -1278.9103   -1278.9103            0    348.78631   -930.12397   0.36078672 
585000 136.960080524389 -24.9717369339425 -903.927644208768 -1270.94617825261 367.018534043842 0.356909334210013
586000 142.56532947821 77.4920882665908 -887.172455237875 -1269.21164527217 382.039190034299 0.360468395800084
  586000    142.56533    77.492088   -1269.2116   -1269.2116            0    382.03919   -887.17246    0.3604684 
587000 143.607087117828 39.4536068755325 -932.098493484974 -1316.92933171529 384.830838230311 0.371882719471156
588000 139.301474715585 28.1238740204707 -905.530634275502 -1278.82351527052 373.29288099502 0.361087749311115
  588000    139.30147    28.123874   -1278.8235   -1278.8235            0    373.29288   -905.53063   0.36108775 
589000 149.856061932186 -63.6249425165055 -924.739754050254 -1326.31627150959 401.576517459334 0.368091729029406
590000 141.936878078303 69.9807048325359 -914.48694514024 -1294.84204364489 380.355098504646 0.365564673063064
  590000    141.93688    69.980705    -1294.842    -1294.842            0     380.3551   -914.48695   0.36556467 
591000 143.230472671714 1.39158422619205 -883.587636031783 -1267.40924236486 383.821606333081 0.358221317973387
592000 135.038513858466 21.1023978686198 -948.423695750112 -1310.29291491261 361.869219162494 0.368646326439675
  592000    135.03851    21.102398   -1310.2929   -1310.2929            0    361.86922    -948.4237   0.36864633 
593000 142.529325914203 -55.0744972573422 -888.075034251651 -1270.01774379885 381.942709547198 0.35692244754361
594000 137.158007335427 48.7750168177085 -945.526385895682 -1313.07531396205 367.548928066369 0.369958032366158
  594000    137.15801    48.775017   -1313.0753   -1313.0753            0    367.54893   -945.52639   0.36995803 
595000 139.557317641279 26.0908218620335 -922.081511297101 -1296.05998692067 373.978475623573 0.364223993285057
596000 147.079090527178 90.9964365620391 -875.51213852031 -1269.64707175857 394.134933238256 0.361886360524282
  596000    147.07909    90.996437   -1269.6471   -1269.6471            0    394.13493   -875.51214   0.36188636 
597000 137.390915506739 -24.6317663037081 -926.913037500303 -1295.08610082765 368.173063327348 0.363198634312411
598000 141.77423230042 -9.15633282412706 -899.825083330232 -1279.74433209867 379.919248768441 0.361207775864883
  598000    141.77423   -9.1563328   -1279.7443   -1279.7443            0    379.91925   -899.82508   0.36120778 
599000 139.512998915088 47.5068145615365 -931.446578984548 -1305.30629157984 373.859712595289 0.369507103065324
600000 134.356459960905 50.2612004442597 -953.67648858359 -1313.71797501796 360.041486434366 0.37091518970352
  600000    134.35646      50.2612    -1313.718    -1313.718            0    360.04149   -953.67649   0.37091519 
601000 135.401380104713 35.6776362278821 -932.219250147823 -1295.06085949322 362.841609345398 0.368034220090173
602000 145.793260949697 -16.0174982988243 -901.074540727121 -1291.76377442468 390.689233697556 0.360351898836513
  602000    145.79326   -16.017498   -1291.7638   -1291.7638            0    390.68923   -901.07454    0.3603519 
603000 137.10081142259 -32.3982621441702 -920.321851291077 -1287.71750871098 367.395657419899 0.361239556607598
604000 137.78988233399 49.3334036035175 -943.334180544762 -1312.57637452324 369.242193978479 0.367902964075626
  604000    137.78988    49.333404   -1312.5764   -1312.5764            0    369.24219   -943.33418   0.36790296 
605000 140.235581155286 -24.3705521149119 -925.856735236652 -1301.65278631472 375.796051078066 0.366623458642067
606000 144.492118359924 62.151033960766 -930.185008507424 -1317.38750764662 387.202499139192 0.370527025183357
  606000    144.49212    62.151034   -1317.3875   -1317.3875            0     387.2025   -930.18501   0.37052703 
607000 141.086896512632 -79.7195205872806 -918.240177624559 -1296.31753952886 378.077361904299 0.361112594230621
608000 135.165808264333 53.5664117717236 -903.379763996212 -1265.59010011815 362.210336121938 0.358902556871879
  608000    135.16581    53.566412   -1265.5901   -1265.5901            0    362.21034   -903.37976   0.35890256 
609000 144.333497685533 79.1343072993135 -898.789776978103 -1285.56721264507 386.777435666966 0.363912392566666
610000 139.86653351842 -47.3164303662261 -873.858165888527 -1248.66526221309 374.807096324561 0.351841049410435
  610000    139.86653    -47.31643   -1248.6653   -1248.6653            0     374.8071   -873.85817   0.35184105 
611000 135.800656089148 71.5960936634969 -927.65950637067 -1291.57107483062 363.911568459945 0.365275409715594
612000 147.51818206201 32.408948491459 -858.909745911034 -1254.22133391474 395.311588003705 0.354626425015448
  612000    147.51818    32.408948   -1254.2213   -1254.2213            0    395.31159   -858.90975   0.35462643 
613000 138.489131995239 76.7943091732692 -921.966574851519 -1293.08258187552 371.116007024 0.366534886750877
614000 136.909864118329 92.581924972867 -933.209741781198 -1300.09370849954 366.883966718338 0.367614375087157
  614000    136.90986    92.581925   -1300.0937   -1300.0937            0    366.88397   -933.20974   0.36761438 
615000 138.948774655152 56.008975830971 -950.201328271203 -1322.54906190181 372.34773363061 0.373691127457854
616000 129.594226997443 -94.0027668616187 -962.059492502373 -1309.33939355848 347.279901056106 0.363812548701991
  616000    129.59423   -94.002767   -1309.3394   -1309.3394            0     347.2799   -962.05949   0.36381255 
617000 137.385008890445 34.1670286481879 -923.038193128665 -1291.19542821143 368.157235082761 0.364705505070973
618000 139.586518375035 -19.0284906949049 -924.901576724136 -1298.95830296245 374.056726238316 0.365142790495064
  618000    139.58652   -19.028491   -1298.9583   -1298.9583            0    374.05673   -924.90158   0.36514279 
619000 138.916547010351 112.077692539911 -960.297642855468 -1332.55901451181 372.261371656338 0.376827583943276
620000 144.132446538619 25.8470618475172 -912.112578274361 -1298.35124748525 386.238669210891 0.364880727891204
  620000    144.13245    25.847062   -1298.3512   -1298.3512            0    386.23867   -912.11258   0.36488073 
621000 136.689525877485 -18.6877292546919 -915.094850685402 -1281.38836639174 366.293515706342 0.359251966536102
622000 139.778195551723 -48.33733254818 -898.321494307788 -1272.89186712201 374.570372814225 0.355123667521245
  622000     139.7782   -48.337333   -1272.8919   -1272.8919            0    374.57037   -898.32149   0.35512367 
623000 144.777054441121 38.766356053874 -933.728523847335 -1321.69457994719 387.966056099854 0.370603023941376
624000 141.057034708235 144.231839705882 -925.373440452131 -1303.3707802388 377.997339786673 0.370427639947892
  624000    141.05703    144.23184   -1303.3708   -1303.3708            0    377.99734   -925.37344   0.37042764 
625000 141.328129997661 91.0070220175792 -897.1207493842 -1275.84455629422 378.723806910017 0.363808143367028
626000 137.422005161816 -3.68888068417428 -941.363579150622 -1309.61995492629 368.256375775666 0.367665117880652
  626000    137.42201   -3.6888807     -1309.62     -1309.62            0    368.25638   -941.36358   0.36766512 
627000 138.596966497202 51.1566073881476 -950.043285281118 -1321.44826162142 371.404976340301 0.372108407583959
628000 141.688640700651 -69.6936424402081 -911.420489462018 -1291.11037429205 379.689884830034 0.362772336706066
  628000    141.68864   -69.693642   -1291.1104   -1291.1104            0    379.68988   -911.42049   0.36277234 
629000 137.10563323701 9.78705083215036 -897.227763039648 -1264.63634170823 367.40857866858 0.357821881351198
630000 141.179701692171 -14.6591469323917 -914.178869282055 -1292.50492570242 378.326056420364 0.36383013223533
  630000     141.1797   -14.659147   -1292.5049   -1292.5049            0    378.32606   -914.17887   0.36383013 
631000 136.84768317098 4.72667505492882 -898.680545305514 -1265.39788273995 366.717337434431 0.357508900966701
632000 135.777889856387 12.9032089778076 -934.994896190458 -1298.84545687835 363.850560687888 0.364885149132455
  632000    135.77789    12.903209   -1298.8455   -1298.8455            0    363.85056    -934.9949   0.36488515 
633000 142.503331680347 -26.8208774504006 -918.884870374712 -1300.75792191962 381.873051544904 0.363044399194684
634000 136.057039381465 72.6944184840783 -912.803936930615 -1277.40254806562 364.598611135004 0.362329664586065
  634000    136.05704    72.694418   -1277.4025   -1277.4025            0    364.59861   -912.80394   0.36232966 
635000 135.902941970887 -24.3595509218631 -892.259861778703 -1256.4455306497 364.185668870996 0.355803072127958
636000 142.558363146201 -18.9596420582774 -885.437476072597 -1267.45799809099 382.020522018392 0.357746729823812
  636000    142.55836   -18.959642    -1267.458    -1267.458            0    382.02052   -885.43748   0.35774673 
637000 139.666447456649 -45.9489991071889 -931.53801159382 -1305.80892764751 374.270916053691 0.364855092208797
638000 139.108589843169 -41.4183608440255 -879.050638990101 -1251.82663708872 372.775998098614 0.354659613540257
  638000    139.10859   -41.418361   -1251.8266   -1251.8266            0      372.776   -879.05064   0.35465961 
639000 139.455933374045 10.9009319213627 -885.530542620779 -1259.23733393318 373.706791312401 0.354066957019703
640000 145.648439326089 -61.2256909551576 -875.669701274388 -1265.9708494817 390.301148207308 0.35434282403861
  640000    145.64844   -61.225691   -1265.9708   -1265.9708            0    390.30115    -875.6697   0.35434282 
641000 134.633416358322 186.230470632546 -968.255489516553 -1329.03914936806 360.783659851503 0.379005514607957
642000 143.210479958935 35.3306084869118 -913.460764753865 -1297.22879565016 383.768030896299 0.366194908195164
  642000    143.21048    35.330608   -1297.2288   -1297.2288            0    383.76803   -913.46076   0.36619491 
643000 138.673737697117 -16.3504507379886 -916.651332530103 -1288.26203635787 371.610703827767 0.362901467099808
644000 134.025126087862 7.72040611487862 -962.258022255711 -1321.41161732861 359.153595072899 0.371921351519653
  644000    134.02513    7.7204061   -1321.4116   -1321.4116            0     359.1536   -962.25802   0.37192135 
645000 139.750876518664 29.0193638482466 -895.161112577557 -1269.65827726116 374.497164683606 0.359109178572696
646000 138.647167917319 29.4255340072151 -916.203482214031 -1287.74298572128 371.539503507253 0.364196120638246
  646000    138.64717    29.425534    -1287.743    -1287.743            0     371.5395   -916.20348   0.36419612 
647000 141.300616572469 93.3980572472276 -884.705340204871 -1263.35541806229 378.65007785742 0.360061223199523
648000 141.172421322745 31.7136184195286 -879.476046958559 -1257.7825938218 378.306546863245 0.357064175828227
  648000    141.17242    31.713618   -1257.7826   -1257.7826            0    378.30655   -879.47605   0.35706418 
649000 139.455701843724 -105.364654202384 -921.568590368112 -1295.27476123754 373.706170869432 0.360105822726426
650000 149.260202829926 55.8575802458086 -913.427246403457 -1313.40701148523 399.979765081772 0.367943934426524
  650000     149.2602     55.85758    -1313.407    -1313.407            0    399.97977   -913.42725   0.36794393 
651000 148.376803065882 -20.3848977022101 -860.136453224758 -1257.74892934808 397.612476123322 0.3529748696466
652000 144.975827671897 1.9069511664721 -906.630318815265 -1295.12903712945 388.498718314182 0.36485226542261
  652000    144.97583    1.9069512    -1295.129    -1295.129            0    388.49872   -906.63032   0.36485227 
653000 140.220076068363 -33.9973292877614 -944.043877420593 -1319.79837876934 375.754501348751 0.368609025698836
654000 144.51693782511 53.5860768305561 -917.296479935426 -1304.56548899264 387.269009057217 0.368421151028014
  654000    144.51694    53.586077   -1304.5655   -1304.5655            0    387.26901   -917.29648   0.36842115 
[...]
3091000 135.683180154957 -55.0332907794944 -949.094563430131 -1312.69132596278 363.596762532649 0.367784841855749
3092000 134.358207207727 -76.6891667921483 -945.507075866733 -1305.55324448268 360.046168615952 0.364444472873343
 3092000    134.35821   -76.689167   -1305.5532   -1305.5532            0    360.04617   -945.50708   0.36444447 
3093000 137.887134877603 -30.2320269580483 -911.982026235749 -1281.48483254632 369.502806310569 0.358806404882182
3094000 141.720337199383 7.58858619097581 -916.017483836775 -1295.79230730334 379.774823466564 0.363911773512911
 3094000    141.72034    7.5885862   -1295.7923   -1295.7923            0    379.77482   -916.01748   0.36391177 
3095000 140.365176382993 -32.7250625935645 -957.83373231286 -1333.97706597363 376.14333366077 0.372390888939998
3096000 140.337679848288 -11.4314222167126 -955.488666335558 -1331.55831620599 376.069649870428 0.374276109750647
 3096000    140.33768   -11.431422   -1331.5583   -1331.5583            0    376.06965   -955.48867   0.37427611 
3097000 139.291911480273 25.6736402349203 -948.936097280286 -1322.20335121236 373.267253932073 0.37236356180465
3098000 140.686760043599 -11.0864857385547 -902.935680181283 -1279.94077708895 377.005096907669 0.360659570267008
 3098000    140.68676   -11.086486   -1279.9408   -1279.9408            0     377.0051   -902.93568   0.36065957 
3099000 138.726801915698 77.3235027438161 -919.211636947628 -1290.96453952148 371.752902573851 0.365269966024058
3100000 135.544308387522 2.40810965444135 -934.629842578511 -1297.85446373749 363.224621158981 0.365137885664296
 3100000    135.54431    2.4081097   -1297.8545   -1297.8545            0    363.22462   -934.62984   0.36513789 
3101000 144.355616179984 18.0857092246714 -889.269657045409 -1276.10636470884 386.836707663432 0.360135822892533
3102000 139.425009365141 -11.7131521782882 -891.822435919818 -1265.44635867394 373.623922754123 0.355814183097861
 3102000    139.42501   -11.713152   -1265.4464   -1265.4464            0    373.62392   -891.82244   0.35581418 
3103000 135.854179459099 67.0743239285289 -948.741912807919 -1312.79691042402 364.054997616102 0.37127143996606
3104000 138.056948759087 -57.8971535939417 -892.488978415172 -1262.44684317492 369.957864759745 0.353924655988372
 3104000    138.05695   -57.897154   -1262.4468   -1262.4468            0    369.95786   -892.48898   0.35392466 
3105000 137.134401033618 -66.1895022193738 -938.51323302334 -1305.9989021441 367.485669120763 0.365311519267594
3106000 135.597272328955 -20.2635289112622 -928.013758004073 -1291.38030919162 363.366551187551 0.36361037208379
 3106000    135.59727   -20.263529   -1291.3803   -1291.3803            0    363.36655   -928.01376   0.36361037 
3107000 141.922480503183 -74.6114280857796 -912.022284700406 -1292.33880132854 380.31651662813 0.361080570439894
3108000 137.418985261548 -17.4974076974502 -936.714690836842 -1304.9629740401 368.248283203254 0.367128327207111
 3108000    137.41899   -17.497408    -1304.963    -1304.963            0    368.24828   -936.71469   0.36712833 
3109000 137.096153792023 -7.0842229115286 -905.880695758436 -1273.26387190104 367.383176142608 0.358545135840569
3110000 137.127409646161 52.210292052007 -939.310625247012 -1306.77755920958 367.466933962566 0.367845319785872
 3110000    137.12741    52.210292   -1306.7776   -1306.7776            0    367.46693   -939.31063   0.36784532 
3111000 138.58281765734 -73.9710101854807 -933.925746760491 -1305.29280777214 371.367061011654 0.365570047528539
3112000 136.913303242179 -66.6960972001458 -893.174292151885 -1260.06747485629 366.893182704404 0.353643533320636
 3112000     136.9133   -66.696097   -1260.0675   -1260.0675            0    366.89318   -893.17429   0.35364353 
3113000 131.771719645153 -97.2140466122875 -901.883351285572 -1254.998384421 353.115033135424 0.352603244047722
3114000 140.165557798936 -25.7080441109705 -903.386229226228 -1278.99463533871 375.60840611248 0.360603544427813
 3114000    140.16556   -25.708044   -1278.9946   -1278.9946            0    375.60841   -903.38623   0.36060354 
3115000 135.120435914151 3.43173788601285 -910.421733090864 -1272.51048273748 362.08874964662 0.360254670023492
3116000 143.039065701942 -60.3262691776477 -883.149866187229 -1266.45855003091 383.308683843677 0.356626788273642
 3116000    143.03907   -60.326269   -1266.4586   -1266.4586            0    383.30868   -883.14987   0.35662679 
3117000 144.44110365477 56.0040787426419 -872.344092189483 -1259.40988476258 387.065792573099 0.35775033861572
3118000 142.776047756413 -64.8834716414601 -890.540948302051 -1273.14481027044 382.603861968384 0.357802835962896
 3118000    142.77605   -64.883472   -1273.1448   -1273.1448            0    382.60386   -890.54095   0.35780284 
3119000 138.221347155134 -109.292064326642 -891.66482352591 -1262.06323459729 370.398411071382 0.352392693551762
3120000 134.682079810761 -18.4597381758382 -914.298625312643 -1275.21269096492 360.914065652281 0.358888774844003
 3120000    134.68208   -18.459738   -1275.2127   -1275.2127            0    360.91407   -914.29863   0.35888877 
3121000 142.567497733935 79.1903053702295 -895.433373049143 -1277.47837346289 382.04500041375 0.361183345008562
3122000 142.273256109707 96.7146613168846 -920.630219027093 -1301.88672596767 381.256506940577 0.368799446282037
 3122000    142.27326    96.714661   -1301.8867   -1301.8867            0    381.25651   -920.63022   0.36879945 
3123000 140.141260935026 11.6847893572789 -887.897801721772 -1263.44109835608 375.543296634305 0.3567975553553
3124000 140.27492646203 29.2711460670017 -918.244588362788 -1294.14607495715 375.901486594366 0.364562870897805
 3124000    140.27493    29.271146   -1294.1461   -1294.1461            0    375.90149   -918.24459   0.36456287 
3125000 147.08243274214 38.4153032116662 -918.267480844775 -1312.41137037768 394.143889532901 0.369155776417866
3126000 140.913422278905 75.8946137232373 -906.357582564951 -1283.97007719761 377.612494632659 0.363538221860479
 3126000    140.91342    75.894614   -1283.9701   -1283.9701            0    377.61249   -906.35758   0.36353822 
3127000 146.192920757137 118.025068857359 -901.629799735581 -1293.3900210967 391.760221361123 0.367746979559131
3128000 148.069669843784 30.0286936319359 -906.452921927647 -1303.24235834116 396.789436413508 0.36738441772326
 3128000    148.06967    30.028694   -1303.2424   -1303.2424            0    396.78944   -906.45292   0.36738442 
3129000 133.054327711116 -61.8091107606394 -947.877350579257 -1304.42945041558 356.552099836322 0.365148138577219
3130000 139.448305668883 -28.1500142793941 -931.939305026342 -1305.6256560093 373.686350982958 0.366006882123979
 3130000    139.44831   -28.150014   -1305.6257   -1305.6257            0    373.68635   -931.93931   0.36600688 
3131000 135.398621388442 -17.4553609109481 -930.344679607365 -1293.17889628771 362.834216680342 0.362515478539926
3132000 139.706503906756 -95.2476810311543 -905.890393433184 -1280.26865068835 374.378257255163 0.357162418333937
 3132000     139.7065   -95.247681   -1280.2687   -1280.2687            0    374.37826   -905.89039   0.35716242 
3133000 144.350432071698 96.9764706278701 -890.148183693678 -1276.97099925208 386.822815558401 0.363749178300987
3134000 139.828599246313 73.8325988200055 -917.286556329814 -1291.99199835565 374.705442025838 0.365759294323112
 3134000     139.8286    73.832599    -1291.992    -1291.992            0    374.70544   -917.28656   0.36575929 
3135000 132.706477435017 -33.2987121109573 -943.20244823109 -1298.82239690401 355.619948672919 0.365846995945379
3136000 137.014765361193 30.6041116006689 -917.226310686225 -1284.39138632497 367.165075638745 0.362409372129461
 3136000    137.01477    30.604112   -1284.3914   -1284.3914            0    367.16508   -917.22631   0.36240937 
3137000 142.307356328126 61.8287846741786 -903.180563483855 -1284.52845042455 381.347886940696 0.363360241915139
3138000 147.004436515818 -10.8950958124679 -881.218138588292 -1275.15301787138 393.934879283083 0.360291854436664
 3138000    147.00444   -10.895096    -1275.153    -1275.153            0    393.93488   -881.21814   0.36029185 
3139000 139.361288530265 87.2393827468427 -903.981600634958 -1277.43476759429 373.453166959336 0.363257501504081
3140000 140.063919229577 -55.0413650500879 -886.352995500301 -1261.68903583594 375.336040335638 0.353542131978274
 3140000    140.06392   -55.041365    -1261.689    -1261.689            0    375.33604     -886.353   0.35354213 
3141000 149.785007492364 34.5706481226595 -902.030553004912 -1303.41666245455 401.386109449634 0.368774100870726
3142000 138.340292645695 70.7381704619745 -938.755544730277 -1309.47269977005 370.717155039768 0.370944703443768
 3142000    138.34029     70.73817   -1309.4727   -1309.4727            0    370.71716   -938.75554    0.3709447 
3143000 145.424296348251 20.5584923859692 -921.533293228238 -1311.23379468631 389.700501458072 0.368115077968709
3144000 140.300452962055 7.57406840711068 -937.441710636145 -1313.4116018239 375.969891187753 0.36940918300958
 3144000    140.30045    7.5740684   -1313.4116   -1313.4116            0    375.96989   -937.44171   0.36940918 
3145000 143.806967720986 63.0221284551775 -889.222138204513 -1274.58860612834 385.366467923823 0.361895799908162
3146000 146.612280997149 143.92834257277 -912.816878449029 -1305.70087967313 392.884001224103 0.371412347353093
 3146000    146.61228    143.92834   -1305.7009   -1305.7009            0      392.884   -912.81688   0.37141235 
3147000 142.584087362975 32.326153851346 -913.681482214348 -1295.77093865724 382.089456442888 0.364560307462452
3148000 140.534076391068 -21.2989488515058 -928.458118557764 -1305.05406171706 376.595943159292 0.365944495409807
 3148000    140.53408   -21.298949   -1305.0541   -1305.0541            0    376.59594   -928.45812    0.3659445 
3149000 138.704233715676 99.1915079002305 -940.535612418639 -1312.22803789831 371.692425479676 0.37258493027839
3150000 140.814847766518 -6.39247237901688 -874.214401817363 -1251.56274157444 377.348339757081 0.353492425462949
 3150000    140.81485   -6.3924724   -1251.5627   -1251.5627            0    377.34834    -874.2144   0.35349243 
3151000 142.988522981163 -19.9170581140884 -860.656541965803 -1243.82978404268 383.173242076878 0.35114751647045
3152000 140.204607406942 88.3058422598202 -936.911255563827 -1312.62430479444 375.713049230609 0.371937691461449
 3152000    140.20461    88.305842   -1312.6243   -1312.6243            0    375.71305   -936.91126   0.37193769 
3153000 147.133154391126 129.647515358954 -916.443695975739 -1310.72350675798 394.279810782246 0.372166078301149
3154000 138.790957047685 -5.90357875138633 -943.354509593161 -1315.27933176872 371.924822175555 0.367833537691441
 3154000    138.79096   -5.9035788   -1315.2793   -1315.2793            0    371.92482   -943.35451   0.36783354 
3155000 143.002737395689 30.0710895983077 -919.997361066551 -1303.20869419567 383.211333129115 0.366092693944873
3156000 143.416737793927 10.098985111531 -895.829858127335 -1280.1506080929 384.320749965563 0.361441729476565
 3156000    143.41674    10.098985   -1280.1506   -1280.1506            0    384.32075   -895.82986   0.36144173 
3157000 141.692380118022 123.807947269904 -914.845356682724 -1294.54526220986 379.699905527134 0.367764955681786
3158000 142.576953289508 38.6091678419842 -891.092154928159 -1273.16249385027 382.070338922108 0.360978669624545
 3158000    142.57695    38.609168   -1273.1625   -1273.1625            0    382.07034   -891.09215   0.36097867 
3159000 138.066130141709 -34.0703075787405 -900.918923810017 -1270.90139236364 369.98246855362 0.358278093284269
3160000 134.161489962459 2.99093309472215 -936.352808952542 -1295.8718248777 359.519015925161 0.364668535638327
 3160000    134.16149    2.9909331   -1295.8718   -1295.8718            0    359.51902   -936.35281   0.36466854 
3161000 139.027882977875 0.0415217096325319 -938.03255874886 -1310.59228276766 372.559724018796 0.369405586308325
3162000 133.979421229359 29.5184986249317 -954.201040102291 -1313.23215766129 359.031117558996 0.369444027699769
 3162000    133.97942    29.518499   -1313.2322   -1313.2322            0    359.03112   -954.20104   0.36944403 
3163000 136.095518989288 10.3673078135056 -937.500439619564 -1302.20216641571 364.701726796149 0.366464551405325
3164000 143.4698848667 -3.87787121326407 -899.740491553903 -1284.20366229392 384.463170740019 0.362181312925344
 3164000    143.46988   -3.8778712   -1284.2037   -1284.2037            0    384.46317   -899.74049   0.36218131 
3165000 144.421885666418 -65.7163544792826 -888.170359322726 -1275.18465252546 387.014293202733 0.355657547196103
3166000 140.850449227696 -63.6072708362192 -892.204711081954 -1269.64845379179 377.443742709834 0.355750183933145
 3166000    140.85045   -63.607271   -1269.6485   -1269.6485            0    377.44374   -892.20471   0.35575018 
3167000 139.639910007773 111.503383628359 -919.462537033867 -1293.66233940577 374.199802371906 0.36656422788239
3168000 137.527724507769 14.5996150376232 -903.775851539137 -1272.31552854552 368.539677006385 0.357595718546028
 3168000    137.52772    14.599615   -1272.3155   -1272.3155            0    368.53968   -903.77585   0.35759572 
3169000 137.564295610482 -41.8391833634166 -897.953266768143 -1266.59094512247 368.637678354328 0.356742296445933
3170000 135.98681632648 -8.43741776760025 -910.209198326607 -1274.61962935396 364.410431027354 0.357325496319796
 3170000    135.98682   -8.4374178   -1274.6196   -1274.6196            0    364.41043    -910.2092    0.3573255 
3171000 139.956491867736 -68.1143320604503 -888.767062167217 -1263.81522421958 375.048162052361 0.35621345318992
3172000 137.720515281038 26.2063295472783 -925.936907671381 -1294.99321541215 369.056307740765 0.365495975572015
 3172000    137.72052     26.20633   -1294.9932   -1294.9932            0    369.05631   -925.93691   0.36549598 
3173000 140.20353547883 97.905787008423 -912.301278209891 -1288.01145494304 375.710176733144 0.365678924611189
3174000 144.553474351672 -51.407510269038 -862.338330897289 -1249.70524864707 387.366917749784 0.350267849723225
 3174000    144.55347    -51.40751   -1249.7052   -1249.7052            0    387.36692   -862.33833   0.35026785 
3175000 134.91012772018 12.0372592355472 -942.173887535266 -1303.6990641703 361.525176635031 0.367257171307541
3176000 138.41823665914 34.9910190273809 -939.51366081042 -1310.43968618264 370.926025372223 0.370569568627519
 3176000    138.41824    34.991019   -1310.4397   -1310.4397            0    370.92603   -939.51366   0.37056957 
3177000 142.290310359171 -17.2641682954831 -901.625632549564 -1282.92784058504 381.302208035477 0.359476552918043
3178000 143.455189115216 -12.0055288267199 -889.989315729371 -1274.41310555529 384.423789825918 0.358299515605016
 3178000    143.45519   -12.005529   -1274.4131   -1274.4131            0    384.42379   -889.98932   0.35829952 
3179000 135.426660462948 -10.3466348722064 -906.22954705107 -1269.13890139183 362.909354340758 0.358130956885584
3180000 148.981654032131 26.7563336966189 -911.346014119987 -1310.57933855252 399.233324432533 0.368513653255154
 3180000    148.98165    26.756334   -1310.5793   -1310.5793            0    399.23332   -911.34601   0.36851365 
3181000 143.311066206136 50.168874174483 -904.694379795959 -1288.73195651065 384.037576714695 0.365178471229877
3182000 138.479754209144 -37.1512429707805 -890.466470958124 -1261.55734787639 371.090876918264 0.356248842055757
 3182000    138.47975   -37.151243   -1261.5573   -1261.5573            0    371.09088   -890.46647   0.35624884 
3183000 136.641629585687 28.8885053183006 -942.641202207443 -1308.80636791038 366.165165702935 0.369931756483343
3184000 148.095963626554 77.1499312732371 -892.57195274131 -1289.43184987279 396.859897131477 0.365692860551891
 3184000    148.09596    77.149931   -1289.4318   -1289.4318            0     396.8599   -892.57195   0.36569286 
3185000 140.891243111104 108.093996240355 -906.549762354364 -1284.10282240126 377.553060046892 0.365705250156667
3186000 133.546010085577 53.5151514691479 -922.127121745231 -1279.99680655667 357.86968481144 0.363622963782745
 3186000    133.54601    53.515151   -1279.9968   -1279.9968            0    357.86968   -922.12712   0.36362296 
3187000 142.203223148243 -53.9260028900085 -899.153943629511 -1280.22277986522 381.068836235705 0.359353177419938
3188000 143.644130006413 -78.469097001899 -873.98527397766 -1258.91537782327 384.930103845613 0.350748317993208
 3188000    143.64413   -78.469097   -1258.9154   -1258.9154            0     384.9301   -873.98527   0.35074832 
3189000 138.371652195525 21.988053091134 -916.280138030924 -1287.081328769 370.801190738073 0.361734666127169
3190000 145.52428346957 3.87436524442526 -859.108556282273 -1249.07699805222 389.968441769944 0.352548360503736
 3190000    145.52428    3.8743652    -1249.077    -1249.077            0    389.96844   -859.10856   0.35254836 
3191000 137.381905873921 33.4580056716352 -938.936924075518 -1307.08584385523 368.148919779708 0.368538576368461
3192000 140.220678695831 37.5577613024335 -934.89538053019 -1310.65149676883 375.756116238645 0.36984060134035
 3192000    140.22068    37.557761   -1310.6515   -1310.6515            0    375.75612   -934.89538    0.3698406 
3193000 150.45472944626 7.55944336215907 -880.245360906721 -1283.42615658022 403.180795673495 0.362060286566573
3194000 146.924865514982 23.7058511124848 -910.235612270642 -1303.95726130468 393.72164903404 0.366005241408594
 3194000    146.92487    23.705851   -1303.9573   -1303.9573            0    393.72165   -910.23561   0.36600524 
3195000 136.277262417785 -83.293291207266 -926.660434334685 -1291.84918776256 365.188753427876 0.360874213168181
3196000 147.561253365642 81.8240056473577 -929.394950636095 -1324.82195888968 395.427008253588 0.374896900606602
 3196000    147.56125    81.824006    -1324.822    -1324.822            0    395.42701   -929.39495    0.3748969 
3197000 143.343947216841 56.5648750143994 -901.133005258376 -1285.25869480347 384.125689545097 0.364610838585413
3198000 143.490593378398 -42.2113597286062 -874.712944995843 -1259.23160933353 384.51866433769 0.353736941237161
 3198000    143.49059    -42.21136   -1259.2316   -1259.2316            0    384.51866   -874.71294   0.35373694 
3199000 141.582309691243 17.4963665674818 -930.48218126008 -1309.88712575533 379.404944495252 0.368694537300541
3200000 134.926572417226 -14.950797661517 -907.49383877182 -1269.06308305473 361.569244282914 0.358774048129846
 3200000    134.92657   -14.950798   -1269.0631   -1269.0631            0    361.56924   -907.49384   0.35877405 
Loop time of 628.026 on 36 procs for 3000000 steps with 900 atoms

Performance: 825.443 ns/day, 0.029 hours/ns, 4776.869 timesteps/s
99.6% CPU use with 36 MPI tasks x 1 OpenMP threads

MPI task timing breakdown:
Section |  min time  |  avg time  |  max time  |%varavg| %total
---------------------------------------------------------------
Pair    | 136.65     | 142.91     | 154.55     |  36.8 | 22.76
Bond    | 0.52682    | 0.59162    | 0.71059    |   5.4 |  0.09
Neigh   | 10.989     | 11.269     | 12.641     |  12.4 |  1.79
Comm    | 330.79     | 346.68     | 360.95     |  45.0 | 55.20
Output  | 0.21492    | 0.21614    | 0.23188    |   0.6 |  0.03
Modify  | 96.529     | 104.6      | 116.79     |  49.4 | 16.66
Other   |            | 21.76      |            |       |  3.47

Nlocal:    25 ave 31 max 22 min
Histogram: 4 7 7 5 3 4 4 1 0 1
Nghost:    1235.89 ave 1259 max 1211 min
Histogram: 1 3 4 2 3 8 8 3 3 1
Neighs:    3151.78 ave 3943 max 2729 min
Histogram: 6 4 8 4 4 3 5 1 0 1

Total # of neighbors = 113464
Ave neighs/atom = 126.071
Ave special neighs/atom = 0
Neighbor list builds = 53361
Dangerous builds = 0
unfix integrator
write_restart production.restart
undump traj1
Total wall time: 0:10:28
